 Entering Gaussian System, Link 0=g09
 Input=g09.inp
 Output=g09.log
 Initial command:
 /home/toshibac655/g09/l1.exe /home/toshibac655/Gaussian_Scratch/Gau-3381.inp -scrdir=/home/toshibac655/Gaussian_Scratch/
 Entering Link 1 = /home/toshibac655/g09/l1.exe PID=      3383.
  
 Copyright (c) 1988,1990,1992,1993,1995,1998,2003,2009, Gaussian, Inc.
                  All Rights Reserved.
  
 This is part of the Gaussian(R) 09 program.  It is based on
 the Gaussian(R) 03 system (copyright 2003, Gaussian, Inc.),
 the Gaussian(R) 98 system (copyright 1998, Gaussian, Inc.),
 the Gaussian(R) 94 system (copyright 1995, Gaussian, Inc.),
 the Gaussian 92(TM) system (copyright 1992, Gaussian, Inc.),
 the Gaussian 90(TM) system (copyright 1990, Gaussian, Inc.),
 the Gaussian 88(TM) system (copyright 1988, Gaussian, Inc.),
 the Gaussian 86(TM) system (copyright 1986, Carnegie Mellon
 University), and the Gaussian 82(TM) system (copyright 1983,
 Carnegie Mellon University). Gaussian is a federally registered
 trademark of Gaussian, Inc.
  
 This software contains proprietary and confidential information,
 including trade secrets, belonging to Gaussian, Inc.
  
 This software is provided under written license and may be
 used, copied, transmitted, or stored only in accord with that
 written license.
  
 The following legend is applicable only to US Government
 contracts under FAR:
  
                    RESTRICTED RIGHTS LEGEND
  
 Use, reproduction and disclosure by the US Government is
 subject to restrictions as set forth in subparagraphs (a)
 and (c) of the Commercial Computer Software - Restricted
 Rights clause in FAR 52.227-19.
  
 Gaussian, Inc.
 340 Quinnipiac St., Bldg. 40, Wallingford CT 06492
  
  
 ---------------------------------------------------------------
 Warning -- This program may not be used in any manner that
 competes with the business of Gaussian, Inc. or will provide
 assistance to any competitor of Gaussian, Inc.  The licensee
 of this program is prohibited from giving any competitor of
 Gaussian, Inc. access to this program.  By using this program,
 the user acknowledges that Gaussian, Inc. is engaged in the
 business of creating and licensing software in the field of
 computational chemistry and represents and warrants to the
 licensee that it is not a competitor of Gaussian, Inc. and that
 it will not use this program in any manner prohibited above.
 ---------------------------------------------------------------
  

 Cite this work as:
 Gaussian 09, Revision A.01,
 M. J. Frisch, G. W. Trucks, H. B. Schlegel, G. E. Scuseria, 
 M. A. Robb, J. R. Cheeseman, G. Scalmani, V. Barone, B. Mennucci, 
 G. A. Petersson, H. Nakatsuji, M. Caricato, X. Li, H. P. Hratchian, 
 A. F. Izmaylov, J. Bloino, G. Zheng, J. L. Sonnenberg, M. Hada, 
 M. Ehara, K. Toyota, R. Fukuda, J. Hasegawa, M. Ishida, T. Nakajima, 
 Y. Honda, O. Kitao, H. Nakai, T. Vreven, J. A. Montgomery, Jr., 
 J. E. Peralta, F. Ogliaro, M. Bearpark, J. J. Heyd, E. Brothers, 
 K. N. Kudin, V. N. Staroverov, R. Kobayashi, J. Normand, 
 K. Raghavachari, A. Rendell, J. C. Burant, S. S. Iyengar, J. Tomasi, 
 M. Cossi, N. Rega, J. M. Millam, M. Klene, J. E. Knox, J. B. Cross, 
 V. Bakken, C. Adamo, J. Jaramillo, R. Gomperts, R. E. Stratmann, 
 O. Yazyev, A. J. Austin, R. Cammi, C. Pomelli, J. W. Ochterski, 
 R. L. Martin, K. Morokuma, V. G. Zakrzewski, G. A. Voth, 
 P. Salvador, J. J. Dannenberg, S. Dapprich, A. D. Daniels, 
 O. Farkas, J. B. Foresman, J. V. Ortiz, J. Cioslowski, 
 and D. J. Fox, Gaussian, Inc., Wallingford CT, 2009.
 
 ******************************************
 Gaussian 09:  EM64L-G09RevA.01  8-May-2009
                29-Jun-2016 
 ******************************************
 ----------------------------------------
 # p blyp/sto-3g fchk=all nosymm pop=full
 ----------------------------------------
 1/38=1/1;
 2/12=2,15=1,17=6,18=5,40=1/2;
 3/6=3,11=2,16=1,25=1,30=1,74=402/1,2,3;
 4//1;
 5/5=2,38=5/2;
 6/7=3,28=1/1;
 99/5=1,9=1/99;
 ----------------------------------------------------------------------
 create esp of adenine by running cubegen 0 potential Test.FChk rso.cub
 e -2 h
 ----------------------------------------------------------------------
 Symbolic Z-matrix:
 Charge =  0 Multiplicity = 1
 H                     3.5264    1.3169    2.0702 
 H                     4.0834    0.9641    0.6297 
 O                     3.8636    1.7325    1.2219 
 
                          Input orientation:                          
 ---------------------------------------------------------------------
 Center     Atomic      Atomic             Coordinates (Angstroms)
 Number     Number       Type             X           Y           Z
 ---------------------------------------------------------------------
      1          1           0        3.526400    1.316900    2.070200
      2          1           0        4.083400    0.964100    0.629700
      3          8           0        3.863600    1.732500    1.221900
 ---------------------------------------------------------------------
                    Distance matrix (angstroms):
                    1          2          3
     1  H    0.000000
     2  H    1.584221   0.000000
     3  O    1.003015   0.994712   0.000000
 Symmetry turned off by external request.
 Stoichiometry    H2O
 Framework group  CS[SG(H2O)]
 Deg. of freedom     3
 Full point group                 CS      NOp   2
 Rotational constants (GHZ):    762.5242941    399.5719169    262.1842245
 Standard basis: STO-3G (5D, 7F)
 Integral buffers will be    131072 words long.
 Raffenetti 2 integral format.
 Two-electron integral symmetry is turned off.
     7 basis functions,    21 primitive gaussians,     7 cartesian basis functions
     5 alpha electrons        5 beta electrons
       nuclear repulsion energy         8.8106441543 Hartrees.
 NAtoms=    3 NActive=    3 NUniq=    3 SFac= 7.50D-01 NAtFMM=   80 NAOKFM=F Big=F
 One-electron integrals computed using PRISM.
 NBasis=     7 RedAO= T  NBF=     7
 NBsUse=     7 1.00D-06 NBFU=     7
 Harris functional with IExCor=  402 diagonalized for initial guess.
 ExpMin= 1.69D-01 ExpMax= 1.31D+02 ExpMxC= 1.31D+02 IAcc=1 IRadAn=         1 AccDes= 0.00D+00
 HarFok:  IExCor=  402 AccDes= 0.00D+00 IRadAn=         1 IDoV= 1
 ScaDFX=  1.000000  1.000000  1.000000  1.000000
 FoFCou: FMM=F IPFlag=           0 FMFlag=      100000 FMFlg1=           0
         NFxFlg=           0 DoJE=T BraDBF=F KetDBF=T FulRan=T
         Omega=  0.000000  0.000000  1.000000  0.000000  0.000000 ICntrl=     500 IOpCl=  0
         NMat0=    1 NMatS0=    1 NMatT0=    0 NMatD0=    1 NMtDS0=    0 NMtDT0=    0
         I1Cent=           4 NGrid=           0.
 Symmetry not used in FoFCou.
 Requested convergence on RMS density matrix=1.00D-08 within 128 cycles.
 Requested convergence on MAX density matrix=1.00D-06.
 Requested convergence on             energy=1.00D-06.
 No special actions if energy rises.
 Keep J ints in memory in canonical form, NReq=890120.
 Integral accuracy reduced to 1.0D-05 until final iterations.
 Initial convergence to 1.0D-05 achieved.  Increase integral accuracy.
 SCF Done:  E(RB-LYP) =  -75.2862678880     A.U. after   11 cycles
             Convg  =    0.2491D-08             -V/T =  2.0104

 **********************************************************************

            Population analysis using the SCF density.

 **********************************************************************

 Alpha  occ. eigenvalues --  -18.48822  -0.81821  -0.36942  -0.16237  -0.06425
 Alpha virt. eigenvalues --    0.27187   0.37928
     Molecular Orbital Coefficients:
                           1         2         3         4         5
                           O         O         O         O         O
     Eigenvalues --   -18.48822  -0.81821  -0.36942  -0.16237  -0.06425
   1 1   H  1S         -0.00687   0.17243   0.44858  -0.29653   0.00000
   2 2   H  1S         -0.00700   0.17662  -0.44587  -0.29491   0.00000
   3 3   O  1S          0.99336  -0.22736  -0.00115  -0.12649   0.00000
   4        2S          0.02968   0.80464   0.00576   0.61689   0.00000
   5        2PX        -0.00040  -0.01734  -0.21252   0.06971   0.93148
   6        2PY        -0.00435  -0.18956   0.13657   0.71847  -0.01373
   7        2PZ         0.00085   0.03728   0.54968  -0.15147   0.36354
                           6         7
                           V         V
     Eigenvalues --     0.27187   0.37928
   1 1   H  1S         -0.78758  -0.77328
   2 2   H  1S         -0.73912   0.83102
   3 3   O  1S         -0.12306   0.00482
   4        2S          0.79296  -0.03392
   5        2PX        -0.08227  -0.33758
   6        2PY        -0.72632   0.24475
   7        2PZ         0.18337   0.87422
     Density Matrix:
                           1         2         3         4         5
   1 1   H  1S          0.63787
   2 2   H  1S         -0.16412   0.63402
   3 3   O  1S         -0.01808  -0.01859   2.10893
   4        2S         -0.08360  -0.08517  -0.46301   2.05783
   5        2PX        -0.23797   0.14228  -0.01005   0.05562   1.83595
   6        2PY        -0.36888  -0.61244  -0.10451   0.58269   0.02312
   7        2PZ         0.59583  -0.38767   0.02180  -0.12052   0.42121
                           6         7
   6        2PY         1.14198
   7        2PZ        -0.09164   0.91728
    Full Mulliken population analysis:
                           1         2         3         4         5
   1 1   H  1S          0.63787
   2 2   H  1S         -0.03730   0.63402
   3 3   O  1S         -0.00088  -0.00092   2.10893
   4        2S         -0.03722  -0.03837  -0.10960   2.05783
   5        2PX         0.03017   0.01195   0.00000   0.00000   1.83595
   6        2PY         0.05764   0.17984   0.00000   0.00000   0.00000
   7        2PZ         0.19003   0.08773   0.00000   0.00000   0.00000
                           6         7
   6        2PY         1.14198
   7        2PZ         0.00000   0.91728
     Gross orbital populations:
                           1
   1 1   H  1S          0.84030
   2 2   H  1S          0.83695
   3 3   O  1S          1.99754
   4        2S          1.87264
   5        2PX         1.87807
   6        2PY         1.37945
   7        2PZ         1.19505
          Condensed to atoms (all electrons):
              1          2          3
     1  H    0.637865  -0.037302   0.239741
     2  H   -0.037302   0.634019   0.240231
     3  O    0.239741   0.240231   7.842775
 Mulliken atomic charges:
              1
     1  H    0.159696
     2  H    0.163052
     3  O   -0.322748
 Sum of Mulliken atomic charges =   0.00000
 Mulliken charges with hydrogens summed into heavy atoms:
              1
     3  O    0.000000
 Sum of Mulliken charges with hydrogens summed into heavy atoms =   0.00000
 Electronic spatial extent (au):  <R**2>=            700.7955
 Charge=              0.0000 electrons
 Dipole moment (field-independent basis, Debye):
    X=             -0.1453    Y=             -1.5213    Z=              0.3147  Tot=              1.5603
 Quadrupole moment (field-independent basis, Debye-Ang):
   XX=             -7.0362   YY=            -10.2729   ZZ=             -3.8783
   XY=             -6.1644   XZ=              0.4580   YZ=             -1.1804
 Traceless Quadrupole moment (field-independent basis, Debye-Ang):
   XX=              0.0263   YY=             -3.2104   ZZ=              3.1841
   XY=             -6.1644   XZ=              0.4580   YZ=             -1.1804
 Octapole moment (field-independent basis, Debye-Ang**2):
  XXX=            -74.8482  YYY=            -37.9748  ZZZ=            -15.7241  XYY=            -40.1018
  XXY=            -34.4931  XXZ=             -8.4843  XZZ=            -16.7098  YZZ=             -8.4797
  YYZ=            -11.5140  XYZ=             -5.6942
 Hexadecapole moment (field-independent basis, Debye-Ang**3):
 XXXX=           -563.9255 YYYY=           -115.3347 ZZZZ=            -46.3296 XXXY=           -211.0644
 XXXZ=            -99.7149 YYYX=           -147.0651 YYYZ=            -45.4223 ZZZX=            -63.4793
 ZZZY=            -29.0612 XXYY=           -173.5251 XXZZ=            -82.0443 YYZZ=            -27.9146
 XXYZ=            -38.3334 YYXZ=            -45.8578 ZZXY=            -35.1887
 N-N= 8.810644154329D+00 E-N=-1.961643634041D+02  KE= 7.450872346812D+01
 Orbital energies and kinetic energies (alpha):
                                 1                 2
   1         O               -18.488222         28.610451
   2         O                -0.818212          2.308880
   3         O                -0.369420          1.445438
   4         O                -0.162365          2.360862
   5         O                -0.064249          2.528731
   6         V                 0.271870          2.685010
   7         V                 0.379284          2.723539
 Total kinetic energy from orbitals= 7.450872346812D+01
 1\1\GINC-TOSHIBAC655-SATELLITE-C655\SP\RBLYP\STO-3G\H2O1\TOSHIBAC655\2
 9-Jun-2016\0\\# p blyp/sto-3g fchk=all nosymm pop=full\\create esp of 
 adenine by running cubegen 0 potential Test.FChk rso.cube -2 h\\0,1\H,
 0,3.5264,1.3169,2.0702\H,0,4.0834,0.9641,0.6297\O,0,3.8636,1.7325,1.22
 19\\Version=EM64L-G09RevA.01\HF=-75.2862679\RMSD=2.491e-09\Dipole=-0.0
 571469,-0.5985122,0.1238248\Quadrupole=0.0195232,-2.3868561,2.3673329,
 -4.5830846,0.3405316,-0.8776107\PG=CS [SG(H2O1)]\\@


 I DON'T PRETEND TO UNDERSTAND THE UNIVERSE --
 IT'S A GREAT DEAL BIGGER THAN I AM.
       -- ATTR. TO WILLIAM ALLINGHAM (1828-89)
 Job cpu time:  0 days  0 hours  0 minutes  0.5 seconds.
 File lengths (MBytes):  RWF=      5 Int=      0 D2E=      0 Chk=      1 Scr=      1
 Normal termination of Gaussian 09 at Wed Jun 29 10:59:28 2016.
