 Entering Gaussian System, Link 0=/home/u16/rubensantamaria/g09/g09
 Input=rr.inp
 Output=rr.log
 Initial command:
 /home/u16/rubensantamaria/g09/l1.exe /scratch/Gau-13405.inp -scrdir=/scratch/
 Entering Link 1 = /home/u16/rubensantamaria/g09/l1.exe PID=     13406.
  
 Copyright (c) 1988,1990,1992,1993,1995,1998,2003,2009, Gaussian, Inc.
                  All Rights Reserved.
  
 This is part of the Gaussian(R) 09 program.  It is based on
 the Gaussian(R) 03 system (copyright 2003, Gaussian, Inc.),
 the Gaussian(R) 98 system (copyright 1998, Gaussian, Inc.),
 the Gaussian(R) 94 system (copyright 1995, Gaussian, Inc.),
 the Gaussian 92(TM) system (copyright 1992, Gaussian, Inc.),
 the Gaussian 90(TM) system (copyright 1990, Gaussian, Inc.),
 the Gaussian 88(TM) system (copyright 1988, Gaussian, Inc.),
 the Gaussian 86(TM) system (copyright 1986, Carnegie Mellon
 University), and the Gaussian 82(TM) system (copyright 1983,
 Carnegie Mellon University). Gaussian is a federally registered
 trademark of Gaussian, Inc.
  
 This software contains proprietary and confidential information,
 including trade secrets, belonging to Gaussian, Inc.
  
 This software is provided under written license and may be
 used, copied, transmitted, or stored only in accord with that
 written license.
  
 The following legend is applicable only to US Government
 contracts under FAR:
  
                    RESTRICTED RIGHTS LEGEND
  
 Use, reproduction and disclosure by the US Government is
 subject to restrictions as set forth in subparagraphs (a)
 and (c) of the Commercial Computer Software - Restricted
 Rights clause in FAR 52.227-19.
  
 Gaussian, Inc.
 340 Quinnipiac St., Bldg. 40, Wallingford CT 06492
  
  
 ---------------------------------------------------------------
 Warning -- This program may not be used in any manner that
 competes with the business of Gaussian, Inc. or will provide
 assistance to any competitor of Gaussian, Inc.  The licensee
 of this program is prohibited from giving any competitor of
 Gaussian, Inc. access to this program.  By using this program,
 the user acknowledges that Gaussian, Inc. is engaged in the
 business of creating and licensing software in the field of
 computational chemistry and represents and warrants to the
 licensee that it is not a competitor of Gaussian, Inc. and that
 it will not use this program in any manner prohibited above.
 ---------------------------------------------------------------
  

 Cite this work as:
 Gaussian 09, Revision A.01,
 M. J. Frisch, G. W. Trucks, H. B. Schlegel, G. E. Scuseria, 
 M. A. Robb, J. R. Cheeseman, G. Scalmani, V. Barone, B. Mennucci, 
 G. A. Petersson, H. Nakatsuji, M. Caricato, X. Li, H. P. Hratchian, 
 A. F. Izmaylov, J. Bloino, G. Zheng, J. L. Sonnenberg, M. Hada, 
 M. Ehara, K. Toyota, R. Fukuda, J. Hasegawa, M. Ishida, T. Nakajima, 
 Y. Honda, O. Kitao, H. Nakai, T. Vreven, J. A. Montgomery, Jr., 
 J. E. Peralta, F. Ogliaro, M. Bearpark, J. J. Heyd, E. Brothers, 
 K. N. Kudin, V. N. Staroverov, R. Kobayashi, J. Normand, 
 K. Raghavachari, A. Rendell, J. C. Burant, S. S. Iyengar, J. Tomasi, 
 M. Cossi, N. Rega, J. M. Millam, M. Klene, J. E. Knox, J. B. Cross, 
 V. Bakken, C. Adamo, J. Jaramillo, R. Gomperts, R. E. Stratmann, 
 O. Yazyev, A. J. Austin, R. Cammi, C. Pomelli, J. W. Ochterski, 
 R. L. Martin, K. Morokuma, V. G. Zakrzewski, G. A. Voth, 
 P. Salvador, J. J. Dannenberg, S. Dapprich, A. D. Daniels, 
 O. Farkas, J. B. Foresman, J. V. Ortiz, J. Cioslowski, 
 and D. J. Fox, Gaussian, Inc., Wallingford CT, 2009.
 
 ******************************************
 Gaussian 09:  EM64L-G09RevA.01  8-May-2009
                29-May-2016 
 ******************************************
 ---------------------------------------
 # p blyp/6-31g fchk=all nosymm pop=full
 ---------------------------------------
 1/38=1/1;
 2/12=2,15=1,17=6,18=5,40=1/2;
 3/5=1,6=6,11=2,16=1,25=1,30=1,74=402/1,2,3;
 4//1;
 5/5=2,38=5/2;
 6/7=3,28=1/1;
 99/5=1,9=1/99;
 ----------------------------------------------------------------------
 create esp of adenine by running cubegen 0 potential Test.FChk rso.cub
 e -2 h
 ----------------------------------------------------------------------
 Symbolic Z-matrix:
 Charge =  0 Multiplicity = 1
 H                     3.5264    1.3169    2.0702 
 H                     4.0834    0.9641    0.6297 
 O                     3.8636    1.7325    1.2219 
 O                    -3.3876   -0.5411    1.8412 
 H                    -2.6335   -1.1238    1.9816 
 H                    -3.0005    0.3102    2.2515 
 O                    -2.4756   -3.6054   -1.4858 
 H                    -1.5039   -3.3713   -1.6159 
 H                    -2.8997   -2.8278   -1.9047 
 O                     1.8163    1.1182   -2.9825 
 H                     1.1361    1.7429   -2.5955 
 H                     2.5       1.0085   -2.2742 
 O                    -3.5546    0.2186   -2.6402 
 H                    -3.0736    0.9799   -3.1329 
 H                    -2.7455   -0.1699   -2.0558 
 H                     1.5333   -0.3667    2.6352 
 H                     0.9467    0.946     3.2603 
 O                     1.5219    0.2004    3.509 
 H                     0.5267   -3.9204   -0.0281 
 H                     0.8931   -4.271     1.5469 
 O                     0.7075   -3.5974    0.87 
 O                     3.9231   -1.9452   -1.7988 
 H                     3.7142   -2.3919   -2.7306 
 H                     2.9732   -1.8885   -1.3047 
 O                     0.5178    4.0649    1.4045 
 H                     0.7704    3.2558    0.8152 
 H                     1.4337    4.5996    1.4675 
 O                    -3.0185    2.3447    0.0838 
 H                    -3.376     3.1909   -0.3773 
 H                    -3.4331    2.17      0.9813 
 
                          Input orientation:                          
 ---------------------------------------------------------------------
 Center     Atomic      Atomic             Coordinates (Angstroms)
 Number     Number       Type             X           Y           Z
 ---------------------------------------------------------------------
      1          1           0        3.526400    1.316900    2.070200
      2          1           0        4.083400    0.964100    0.629700
      3          8           0        3.863600    1.732500    1.221900
      4          8           0       -3.387600   -0.541100    1.841200
      5          1           0       -2.633500   -1.123800    1.981600
      6          1           0       -3.000500    0.310200    2.251500
      7          8           0       -2.475600   -3.605400   -1.485800
      8          1           0       -1.503900   -3.371300   -1.615900
      9          1           0       -2.899700   -2.827800   -1.904700
     10          8           0        1.816300    1.118200   -2.982500
     11          1           0        1.136100    1.742900   -2.595500
     12          1           0        2.500000    1.008500   -2.274200
     13          8           0       -3.554600    0.218600   -2.640200
     14          1           0       -3.073600    0.979900   -3.132900
     15          1           0       -2.745500   -0.169900   -2.055800
     16          1           0        1.533300   -0.366700    2.635200
     17          1           0        0.946700    0.946000    3.260300
     18          8           0        1.521900    0.200400    3.509000
     19          1           0        0.526700   -3.920400   -0.028100
     20          1           0        0.893100   -4.271000    1.546900
     21          8           0        0.707500   -3.597400    0.870000
     22          8           0        3.923100   -1.945200   -1.798800
     23          1           0        3.714200   -2.391900   -2.730600
     24          1           0        2.973200   -1.888500   -1.304700
     25          8           0        0.517800    4.064900    1.404500
     26          1           0        0.770400    3.255800    0.815200
     27          1           0        1.433700    4.599600    1.467500
     28          8           0       -3.018500    2.344700    0.083800
     29          1           0       -3.376000    3.190900   -0.377300
     30          1           0       -3.433100    2.170000    0.981300
 ---------------------------------------------------------------------
                    Distance matrix (angstroms):
                    1          2          3          4          5
     1  H    0.000000
     2  H    1.584221   0.000000
     3  O    1.003015   0.994712   0.000000
     4  O    7.162960   7.716813   7.624480   0.000000
     5  H    6.626404   7.162661   7.137780   0.963285   0.000000
     6  H    6.606568   7.296538   7.085117   1.021227   1.504623
     7  O    8.538043   8.268987   8.718387   4.614175   4.266865
     8  H    7.801953   7.419996   7.931705   4.848701   4.389676
     9  H    8.618186   8.340586   8.735799   4.415746   4.251800
    10  O    5.337949   4.267491   4.716543   7.287107   7.033461
    11  H    5.259636   4.437907   4.691685   6.735341   6.586175
    12  H    4.474642   3.307833   3.821818   7.348579   7.000811
    13  O    8.575237   8.341886   8.499259   4.548404   4.900153
    14  H    8.411053   8.085794   8.225292   5.210922   5.547734
    15  H    7.653181   7.425075   7.618572   3.966950   4.150068
    16  H    2.669491   3.506575   3.440110   4.987595   4.285162
    17  H    2.865093   4.093809   3.644443   4.797027   4.328623
    18  O    2.708272   3.928726   3.614100   5.237802   4.621018
    19  H    6.389865   6.077924   6.682266   5.498699   4.674049
    20  H    6.199414   6.198834   6.706080   5.685346   4.746656
    21  O    5.791116   5.679941   6.204243   5.201350   4.303096
    22  O    5.076202   3.793064   4.759585   8.286581   7.612826
    23  H    6.069444   4.763471   5.714477   8.646524   8.006635
    24  H    4.687277   3.621018   4.504238   7.223015   6.543670
    25  O    4.128721   4.788400   4.082623   6.054593   6.098061
    26  H    3.595816   4.032650   3.471849   5.723468   5.668150
    27  H    3.939386   4.575989   3.766297   7.057718   7.040151
    28  O    6.916493   7.255415   7.002383   3.398901   3.972450
    29  H    7.559448   7.849544   7.556201   4.341624   4.973163
    30  H    7.095641   7.620734   7.313763   2.844567   3.533989
                    6          7          8          9         10
     6  H    0.000000
     7  O    5.438277   0.000000
     8  H    5.545272   1.007933   0.000000
     9  H    5.208762   0.979796   1.525469   0.000000
    10  O    7.158853   6.555373   5.748646   6.242854   0.000000
    11  H    6.531271   6.548292   5.838172   6.136464   1.001345
    12  H    7.157170   6.831270   5.970529   6.634040   0.990540
    13  O    4.923835   4.137615   4.259336   3.201626   5.456466
    14  H    5.426380   4.908719   4.868079   4.004659   4.894167
    15  H    4.341469   3.492908   3.461798   2.666654   4.829906
    16  H    4.600083   6.598719   6.026944   6.805821   5.817523
    17  H    4.123385   7.413019   6.958581   7.464153   6.305427
    18  O    4.695260   7.443934   6.940973   7.617656   6.562667
    19  H    5.961182   3.352301   2.635518   4.056553   5.981558
    20  H    6.053427   4.581313   4.069198   5.327448   7.100087
    21  O    5.561218   3.960048   3.334833   4.615532   6.189352
    22  O    8.332346   6.617975   5.614227   6.880465   3.901816
    23  H    8.786914   6.429287   5.424974   6.679505   3.998285
    24  H    7.291497   5.715765   4.726517   5.977729   3.632310
    25  O    5.214750   8.726270   8.276905   8.374928   5.441958
    26  H    4.995919   7.931405   7.416275   7.607738   4.481715
    27  H    6.218982   9.556497   9.037262   9.236686   5.662952
    28  O    2.972951   6.177546   6.152694   5.542833   5.855065
    29  H    3.917910   6.944724   6.935514   6.227725   6.167911
    30  H    2.293340   6.352845   6.416640   5.795819   6.661396
                   11         12         13         14         15
    11  H    0.000000
    12  H    1.582024   0.000000
    13  O    4.932358   6.116868   0.000000
    14  H    4.311907   5.639433   1.026495   0.000000
    15  H    4.360837   5.380669   1.071027   1.609296   0.000000
    16  H    5.654061   5.189209   7.352493   7.503855   6.352349
    17  H    5.912809   5.748681   7.456991   7.552282   6.567990
    18  O    6.308175   5.920735   7.973948   8.114251   7.022451
    19  H    6.247870   5.764801   6.372707   6.827509   5.374487
    20  H    7.306540   6.712381   7.580920   8.075097   6.560326
    21  O    6.380611   5.857761   6.711844   7.160419   5.677259
    22  O    4.690861   3.312939   7.829814   7.699990   6.905647
    23  H    4.874569   3.639410   7.723881   7.589803   6.864427
    24  H    4.269446   3.091352   6.988248   6.937854   6.018411
    25  O    4.666260   5.177213   6.909274   6.557696   6.368386
    26  H    3.749064   4.193598   6.314269   5.961841   5.686793
    27  H    4.975668   5.294650   7.807016   7.387940   7.254480
    28  O    4.980112   6.148125   3.496839   3.494692   3.312949
    29  H    5.232223   6.548929   3.739944   3.545885   3.809182
    30  H    5.818376   6.866516   4.115579   4.297932   3.895113
                   16         17         18         19         20
    16  H    0.000000
    17  H    1.567811   0.000000
    18  O    1.041758   0.973974   0.000000
    19  H    4.553591   5.888278   5.521095   0.000000
    20  H    4.103390   5.491421   4.923276   1.654628   0.000000
    21  O    3.772970   5.139381   4.695834   0.971391   0.972820
    22  O    5.278557   6.543125   6.208229   4.309562   5.077790
    23  H    6.135925   7.395371   7.103436   4.449716   5.457713
    24  H    4.462286   5.742849   5.444399   3.426906   4.258491
    25  O    4.710089   3.654516   4.513480   8.112795   8.345559
    26  H    4.125157   3.368200   4.142074   7.229688   7.563277
    27  H    5.102703   4.098792   4.850615   8.697693   8.887412
    28  O    5.880494   5.269661   6.078260   7.199475   7.823603
    29  H    6.770000   6.079264   6.930789   8.119335   8.809524
    30  H    5.816817   5.086715   5.900900   7.334295   7.779614
                   21         22         23         24         25
    21  O    0.000000
    22  O    4.493589   0.000000
    23  H    4.843325   1.054244   0.000000
    24  H    3.575340   1.072222   1.683949   0.000000
    25  O    7.683262   7.614361   8.307003   6.986539   0.000000
    26  H    6.853708   6.619888   7.289388   5.984156   1.032339
    27  H    8.250769   7.726593   8.467927   7.221537   1.062425
    28  O    7.057601   8.374559   8.699740   7.466484   4.148344
    29  H    8.019460   9.037535   9.326125   8.183686   4.370397
    30  H    7.100694   8.875669   9.255973   7.920726   4.402199
                   26         27         28         29         30
    26  H    0.000000
    27  H    1.634399   0.000000
    28  O    3.964948   5.178927   0.000000
    29  H    4.314962   5.340500   1.027849   0.000000
    30  H    4.344648   5.461235   1.003952   1.700380   0.000000
 Symmetry turned off by external request.
 Stoichiometry    H20O10
 Framework group  C1[X(H20O10)]
 Deg. of freedom    84
 Full point group                 C1      NOp   1
 Rotational constants (GHZ):      0.2929979      0.2477678      0.2055843
 Standard basis: 6-31G (6D, 7F)
 Integral buffers will be    131072 words long.
 Raffenetti 2 integral format.
 Two-electron integral symmetry is turned off.
   130 basis functions,   300 primitive gaussians,   130 cartesian basis functions
    50 alpha electrons       50 beta electrons
       nuclear repulsion energy       516.3495086797 Hartrees.
 NAtoms=   30 NActive=   30 NUniq=   30 SFac= 7.50D-01 NAtFMM=   80 NAOKFM=F Big=F
 One-electron integrals computed using PRISM.
 NBasis=   130 RedAO= T  NBF=   130
 NBsUse=   130 1.00D-06 NBFU=   130
 Harris functional with IExCor=  402 diagonalized for initial guess.
 ExpMin= 1.61D-01 ExpMax= 5.48D+03 ExpMxC= 8.25D+02 IAcc=1 IRadAn=         1 AccDes= 0.00D+00
 HarFok:  IExCor=  402 AccDes= 0.00D+00 IRadAn=         1 IDoV= 1
 ScaDFX=  1.000000  1.000000  1.000000  1.000000
 FoFCou: FMM=F IPFlag=           0 FMFlag=      100000 FMFlg1=           0
         NFxFlg=           0 DoJE=T BraDBF=F KetDBF=T FulRan=T
         Omega=  0.000000  0.000000  1.000000  0.000000  0.000000 ICntrl=     500 IOpCl=  0
         NMat0=    1 NMatS0=    1 NMatT0=    0 NMatD0=    1 NMtDS0=    0 NMtDT0=    0
         I1Cent=           4 NGrid=           0.
 Symmetry not used in FoFCou.
 Requested convergence on RMS density matrix=1.00D-08 within 128 cycles.
 Requested convergence on MAX density matrix=1.00D-06.
 Requested convergence on             energy=1.00D-06.
 No special actions if energy rises.
 Integral accuracy reduced to 1.0D-05 until final iterations.
 Initial convergence to 1.0D-05 achieved.  Increase integral accuracy.
 SCF Done:  E(RB-LYP) =  -763.656561499     A.U. after   13 cycles
             Convg  =    0.4006D-08             -V/T =  2.0061

 **********************************************************************

            Population analysis using the SCF density.

 **********************************************************************

 Alpha  occ. eigenvalues --  -18.81756 -18.81538 -18.80186 -18.80095 -18.80019
 Alpha  occ. eigenvalues --  -18.79856 -18.79500 -18.79487 -18.79425 -18.78640
 Alpha  occ. eigenvalues --   -0.92986  -0.92763  -0.91869  -0.91848  -0.91668
 Alpha  occ. eigenvalues --   -0.91482  -0.89696  -0.89248  -0.89034  -0.88554
 Alpha  occ. eigenvalues --   -0.51073  -0.47512  -0.47392  -0.47080  -0.46902
 Alpha  occ. eigenvalues --   -0.45909  -0.45562  -0.45305  -0.44529  -0.43318
 Alpha  occ. eigenvalues --   -0.32271  -0.31205  -0.30846  -0.30742  -0.30623
 Alpha  occ. eigenvalues --   -0.30592  -0.30335  -0.30016  -0.29782  -0.28094
 Alpha  occ. eigenvalues --   -0.25356  -0.24802  -0.23983  -0.23788  -0.23767
 Alpha  occ. eigenvalues --   -0.23107  -0.23058  -0.22889  -0.22407  -0.21589
 Alpha virt. eigenvalues --   -0.04110  -0.02702  -0.02323  -0.01236  -0.00441
 Alpha virt. eigenvalues --    0.00499   0.01482   0.03251   0.03463   0.04522
 Alpha virt. eigenvalues --    0.06350   0.07418   0.07817   0.08984   0.09202
 Alpha virt. eigenvalues --    0.09608   0.10855   0.12052   0.13399   0.13783
 Alpha virt. eigenvalues --    0.66082   0.68807   0.69034   0.69374   0.70126
 Alpha virt. eigenvalues --    0.70826   0.70912   0.71112   0.71577   0.72911
 Alpha virt. eigenvalues --    0.73401   0.75243   0.75806   0.76515   0.77521
 Alpha virt. eigenvalues --    0.77985   0.78486   0.78912   0.80133   0.81392
 Alpha virt. eigenvalues --    0.81993   0.82219   0.82477   0.82968   0.83384
 Alpha virt. eigenvalues --    0.84483   0.84968   0.85331   0.86235   0.86309
 Alpha virt. eigenvalues --    0.87240   0.87953   0.88657   0.89178   0.90195
 Alpha virt. eigenvalues --    0.90881   0.91656   0.92230   0.92635   0.95147
 Alpha virt. eigenvalues --    0.98241   0.98451   0.98525   0.99027   1.00078
 Alpha virt. eigenvalues --    1.00499   1.00860   1.03337   1.03779   1.03839
 Alpha virt. eigenvalues --    1.31517   1.32194   1.32849   1.34557   1.35264
 Alpha virt. eigenvalues --    1.36881   1.37413   1.39259   1.41101   1.42967
     Molecular Orbital Coefficients:
                           1         2         3         4         5
                           O         O         O         O         O
     Eigenvalues --   -18.81756 -18.81538 -18.80186 -18.80095 -18.80019
   1 1   H  1S         -0.00007   0.00000   0.00005   0.00000  -0.00003
   2        2S          0.00051   0.00002  -0.00011   0.00000   0.00007
   3 2   H  1S          0.00007   0.00001  -0.00002   0.00000   0.00008
   4        2S         -0.00023  -0.00009  -0.00004   0.00001  -0.00039
   5 3   O  1S          0.00043  -0.00007   0.00047   0.00003  -0.00243
   6        2S          0.00014  -0.00002   0.00003   0.00000  -0.00014
   7        2PX        -0.00004   0.00000  -0.00004   0.00000  -0.00002
   8        2PY        -0.00002   0.00001   0.00004   0.00000   0.00003
   9        2PZ         0.00007   0.00001  -0.00001   0.00000   0.00001
  10        3S         -0.00032   0.00006   0.00002   0.00000   0.00026
  11        3PX         0.00014   0.00001   0.00011   0.00000   0.00006
  12        3PY         0.00007  -0.00003  -0.00011   0.00000  -0.00011
  13        3PZ        -0.00027  -0.00003   0.00002   0.00000  -0.00006
  14 4   O  1S         -0.00010   0.00000   0.00000   0.00000   0.00000
  15        2S         -0.00004   0.00000   0.00000   0.00000   0.00000
  16        2PX        -0.00001   0.00000   0.00000   0.00000   0.00000
  17        2PY         0.00000   0.00000   0.00000   0.00000   0.00000
  18        2PZ         0.00000   0.00000   0.00000   0.00000   0.00000
  19        3S          0.00011   0.00000   0.00000   0.00000   0.00000
  20        3PX         0.00003   0.00000   0.00000   0.00000   0.00000
  21        3PY         0.00001   0.00000   0.00000   0.00000   0.00000
  22        3PZ         0.00002   0.00000   0.00000   0.00000   0.00000
  23 5   H  1S          0.00001   0.00000   0.00000   0.00000   0.00000
  24        2S         -0.00005   0.00000   0.00000   0.00000   0.00000
  25 6   H  1S          0.00001   0.00000   0.00000   0.00000   0.00000
  26        2S         -0.00008   0.00000   0.00000   0.00000   0.00000
  27 7   O  1S          0.00000   0.00003   0.00000  -0.00125   0.00001
  28        2S          0.00000   0.00001   0.00000  -0.00017   0.00000
  29        2PX         0.00000   0.00000   0.00000  -0.00005   0.00000
  30        2PY         0.00000   0.00000   0.00000  -0.00002   0.00000
  31        2PZ         0.00000   0.00000   0.00000   0.00003   0.00000
  32        3S          0.00000  -0.00003   0.00000   0.00050   0.00000
  33        3PX         0.00000  -0.00002   0.00000   0.00025   0.00000
  34        3PY         0.00000  -0.00001   0.00000   0.00008   0.00000
  35        3PZ         0.00000   0.00001   0.00000  -0.00010   0.00000
  36 8   H  1S          0.00000  -0.00001   0.00000   0.00013   0.00000
  37        2S          0.00001   0.00006   0.00000  -0.00084  -0.00001
  38 9   H  1S          0.00000   0.00001   0.00000  -0.00009   0.00000
  39        2S          0.00000  -0.00001   0.00000   0.00016   0.00001
  40 10  O  1S          0.00003   0.00011  -0.00175   0.00016   0.99492
  41        2S          0.00001   0.00003  -0.00010   0.00001   0.02898
  42        2PX         0.00000   0.00001   0.00001   0.00000   0.00002
  43        2PY         0.00000  -0.00002  -0.00001   0.00000   0.00087
  44        2PZ         0.00000   0.00001  -0.00001   0.00000   0.00196
  45        3S         -0.00003  -0.00003   0.00016  -0.00001  -0.01405
  46        3PX         0.00000  -0.00003  -0.00005   0.00000  -0.00007
  47        3PY         0.00000   0.00006   0.00004   0.00000  -0.00117
  48        3PZ        -0.00001  -0.00002   0.00003   0.00000  -0.00260
  49 11  H  1S          0.00000   0.00000   0.00003   0.00000   0.00024
  50        2S          0.00001  -0.00003  -0.00017   0.00000   0.00308
  51 12  H  1S          0.00000   0.00001   0.00000   0.00000   0.00018
  52        2S          0.00002   0.00001  -0.00001   0.00001   0.00330
  53 13  O  1S          0.00000   0.00000   0.00001   0.00005  -0.00020
  54        2S          0.00000   0.00000   0.00000   0.00001  -0.00002
  55        2PX         0.00000   0.00000   0.00000   0.00000   0.00000
  56        2PY         0.00000   0.00000   0.00000   0.00000   0.00000
  57        2PZ         0.00000   0.00000   0.00000   0.00000   0.00000
  58        3S          0.00000   0.00000   0.00000  -0.00001   0.00005
  59        3PX         0.00000   0.00000   0.00000   0.00000   0.00002
  60        3PY         0.00000   0.00000   0.00000   0.00001   0.00001
  61        3PZ         0.00000   0.00000   0.00000  -0.00001   0.00000
  62 14  H  1S          0.00000   0.00000   0.00000   0.00000   0.00001
  63        2S          0.00000   0.00000   0.00000  -0.00001  -0.00004
  64 15  H  1S          0.00000   0.00000   0.00000   0.00000   0.00001
  65        2S          0.00000   0.00000   0.00000   0.00001  -0.00003
  66 16  H  1S          0.00041   0.00001   0.00000   0.00000   0.00000
  67        2S          0.00270  -0.00002   0.00000   0.00000   0.00001
  68 17  H  1S          0.00020   0.00000   0.00001   0.00000   0.00000
  69        2S          0.00339   0.00001  -0.00012   0.00000   0.00001
  70 18  O  1S          0.99493   0.00013   0.00012  -0.00001  -0.00003
  71        2S          0.02895   0.00000  -0.00003   0.00000   0.00001
  72        2PX        -0.00098   0.00000   0.00000   0.00000   0.00000
  73        2PY         0.00051   0.00000  -0.00001   0.00000   0.00000
  74        2PZ        -0.00186   0.00000   0.00000   0.00000   0.00000
  75        3S         -0.01392   0.00001   0.00010   0.00000  -0.00002
  76        3PX         0.00135   0.00000  -0.00002   0.00000   0.00000
  77        3PY        -0.00071  -0.00001   0.00003   0.00000  -0.00001
  78        3PZ         0.00250  -0.00001  -0.00001   0.00000   0.00001
  79 19  H  1S         -0.00002   0.00007   0.00000  -0.00005  -0.00001
  80        2S         -0.00003  -0.00023   0.00000   0.00359   0.00002
  81 20  H  1S          0.00001  -0.00002   0.00000   0.00002   0.00000
  82        2S         -0.00004   0.00001   0.00000   0.00322   0.00000
  83 21  O  1S          0.00000  -0.00011   0.00000   0.99491  -0.00016
  84        2S          0.00000  -0.00003   0.00000   0.02906   0.00000
  85        2PX         0.00000   0.00003   0.00000   0.00003   0.00000
  86        2PY         0.00002   0.00003   0.00000  -0.00196   0.00000
  87        2PZ         0.00001   0.00000   0.00000  -0.00048   0.00000
  88        3S          0.00003   0.00013   0.00000  -0.01426  -0.00001
  89        3PX        -0.00001  -0.00006   0.00000  -0.00001   0.00000
  90        3PY        -0.00006  -0.00007   0.00000   0.00240   0.00001
  91        3PZ        -0.00003  -0.00002   0.00000   0.00064   0.00000
  92 22  O  1S         -0.00013   0.99494   0.00000   0.00010  -0.00011
  93        2S         -0.00001   0.02870   0.00000  -0.00002   0.00002
  94        2PX         0.00000  -0.00179   0.00000   0.00001  -0.00001
  95        2PY         0.00000  -0.00060   0.00000   0.00000   0.00005
  96        2PZ         0.00000  -0.00072   0.00000   0.00000  -0.00002
  97        3S          0.00001  -0.01329   0.00000   0.00008   0.00003
  98        3PX        -0.00001   0.00240   0.00000  -0.00004   0.00000
  99        3PY         0.00000   0.00083   0.00000   0.00001  -0.00012
 100        3PZ         0.00001   0.00097   0.00000   0.00002   0.00006
 101 23  H  1S          0.00000   0.00035   0.00000   0.00000   0.00002
 102        2S          0.00001   0.00286   0.00000   0.00001  -0.00001
 103 24  H  1S          0.00000   0.00038   0.00000   0.00002   0.00009
 104        2S         -0.00002   0.00275   0.00001  -0.00012  -0.00021
 105 25  O  1S         -0.00013   0.00000   0.99494   0.00000   0.00175
 106        2S         -0.00004   0.00000   0.02877   0.00000   0.00000
 107        2PX         0.00000   0.00000   0.00180   0.00000   0.00000
 108        2PY         0.00000   0.00000  -0.00052   0.00000   0.00002
 109        2PZ         0.00004   0.00000  -0.00085   0.00000   0.00001
 110        3S          0.00016   0.00000  -0.01348   0.00000   0.00011
 111        3PX         0.00001   0.00000  -0.00246   0.00000   0.00000
 112        3PY        -0.00002   0.00000   0.00071   0.00000  -0.00008
 113        3PZ        -0.00011   0.00000   0.00119   0.00000  -0.00005
 114 26  H  1S          0.00009   0.00000   0.00032   0.00000   0.00004
 115        2S         -0.00031   0.00000   0.00304   0.00000  -0.00021
 116 27  H  1S         -0.00001   0.00000   0.00040   0.00000  -0.00001
 117        2S          0.00002   0.00000   0.00273   0.00000   0.00005
 118 28  O  1S          0.00001   0.00000   0.00003   0.00000   0.00000
 119        2S          0.00000   0.00000   0.00001   0.00000   0.00000
 120        2PX         0.00000   0.00000   0.00001   0.00000   0.00000
 121        2PY         0.00000   0.00000   0.00000   0.00000   0.00000
 122        2PZ         0.00000   0.00000   0.00000   0.00000   0.00000
 123        3S         -0.00002   0.00000   0.00000   0.00000   0.00000
 124        3PX         0.00001   0.00000  -0.00003   0.00000   0.00000
 125        3PY         0.00000   0.00000   0.00000   0.00000   0.00000
 126        3PZ        -0.00001   0.00000   0.00000   0.00000   0.00000
 127 29  H  1S          0.00000   0.00000   0.00000   0.00000   0.00000
 128        2S          0.00000   0.00000  -0.00001   0.00000   0.00000
 129 30  H  1S          0.00000   0.00000   0.00000   0.00000   0.00000
 130        2S          0.00003   0.00000  -0.00001   0.00000   0.00000
                           6         7         8         9        10
                           O         O         O         O         O
     Eigenvalues --   -18.79856 -18.79500 -18.79487 -18.79425 -18.78640
   1 1   H  1S          0.00018   0.00000   0.00000   0.00000   0.00000
   2        2S          0.00345   0.00000   0.00000   0.00002   0.00000
   3 2   H  1S          0.00022   0.00000   0.00000   0.00000   0.00000
   4        2S          0.00314   0.00000   0.00000   0.00000   0.00000
   5 3   O  1S          0.99492   0.00001   0.00000  -0.00004   0.00000
   6        2S          0.02903   0.00000   0.00000   0.00000   0.00000
   7        2PX        -0.00025   0.00000   0.00000   0.00000   0.00000
   8        2PY        -0.00207   0.00000   0.00000   0.00000   0.00000
   9        2PZ         0.00042   0.00000   0.00000   0.00000   0.00000
  10        3S         -0.01421   0.00000   0.00000  -0.00001   0.00000
  11        3PX         0.00032   0.00000   0.00000   0.00000   0.00000
  12        3PY         0.00280   0.00000   0.00000   0.00000   0.00000
  13        3PZ        -0.00068   0.00000   0.00000  -0.00001   0.00000
  14 4   O  1S          0.00004  -0.00038   0.00019   0.99492   0.00039
  15        2S          0.00000  -0.00002   0.00001   0.02902  -0.00006
  16        2PX         0.00000   0.00000   0.00000   0.00202  -0.00003
  17        2PY         0.00000   0.00000   0.00000   0.00031   0.00002
  18        2PZ         0.00000   0.00000  -0.00001   0.00093  -0.00006
  19        3S         -0.00001   0.00002   0.00001  -0.01418   0.00038
  20        3PX         0.00000   0.00001   0.00001  -0.00279   0.00017
  21        3PY         0.00000   0.00000  -0.00001  -0.00043   0.00003
  22        3PZ         0.00000   0.00000   0.00003  -0.00131   0.00022
  23 5   H  1S          0.00000   0.00000   0.00001   0.00022  -0.00012
  24        2S          0.00001  -0.00002  -0.00004   0.00338   0.00013
  25 6   H  1S          0.00000   0.00000   0.00000   0.00033   0.00013
  26        2S          0.00000   0.00000   0.00000   0.00309  -0.00085
  27 7   O  1S         -0.00001   0.99419   0.03829   0.00038   0.00006
  28        2S          0.00000   0.02907   0.00103   0.00001  -0.00001
  29        2PX         0.00000   0.00089   0.00005   0.00000   0.00000
  30        2PY         0.00000   0.00178   0.00007   0.00000   0.00000
  31        2PZ         0.00000  -0.00098  -0.00002   0.00001   0.00000
  32        3S          0.00000  -0.01439  -0.00023   0.00002   0.00003
  33        3PX         0.00000  -0.00120  -0.00011   0.00000  -0.00001
  34        3PY         0.00000  -0.00251  -0.00003   0.00000   0.00001
  35        3PZ         0.00000   0.00139  -0.00002  -0.00002  -0.00001
  36 8   H  1S          0.00000   0.00027   0.00004   0.00001   0.00000
  37        2S          0.00000   0.00324   0.00006  -0.00002   0.00000
  38 9   H  1S          0.00000   0.00021   0.00005   0.00001   0.00001
  39        2S          0.00000   0.00351  -0.00027  -0.00003  -0.00004
  40 10  O  1S          0.00243  -0.00002   0.00020   0.00000   0.00000
  41        2S          0.00000   0.00000  -0.00001   0.00000   0.00000
  42        2PX        -0.00002   0.00000   0.00001   0.00000   0.00000
  43        2PY         0.00001   0.00000  -0.00001   0.00000   0.00000
  44        2PZ        -0.00001   0.00000   0.00000   0.00000   0.00000
  45        3S          0.00016   0.00000   0.00005   0.00000   0.00000
  46        3PX         0.00010   0.00000  -0.00002   0.00000   0.00000
  47        3PY        -0.00003   0.00000   0.00002   0.00000   0.00000
  48        3PZ         0.00007   0.00000   0.00001   0.00000   0.00000
  49 11  H  1S         -0.00001   0.00000   0.00002   0.00000   0.00000
  50        2S          0.00006   0.00001  -0.00008   0.00000   0.00000
  51 12  H  1S          0.00004   0.00000  -0.00001   0.00000   0.00000
  52        2S         -0.00028  -0.00001   0.00002   0.00000   0.00000
  53 13  O  1S          0.00000  -0.03830   0.99420  -0.00021  -0.00015
  54        2S          0.00000  -0.00120   0.02876   0.00000   0.00002
  55        2PX         0.00000  -0.00012   0.00199   0.00000   0.00001
  56        2PY         0.00000  -0.00007   0.00063   0.00000  -0.00001
  57        2PZ         0.00000  -0.00003   0.00002   0.00000   0.00000
  58        3S          0.00000   0.00093  -0.01350   0.00000  -0.00006
  59        3PX         0.00000   0.00031  -0.00276   0.00000  -0.00002
  60        3PY         0.00000   0.00013  -0.00092   0.00000   0.00003
  61        3PZ         0.00000   0.00013  -0.00007   0.00000  -0.00002
  62 14  H  1S          0.00000  -0.00012   0.00035   0.00000   0.00001
  63        2S          0.00000  -0.00001   0.00303   0.00000  -0.00004
  64 15  H  1S          0.00000   0.00019   0.00042   0.00000  -0.00004
  65        2S          0.00000  -0.00093   0.00275   0.00001   0.00013
  66 16  H  1S          0.00021   0.00000   0.00000   0.00001   0.00000
  67        2S         -0.00037   0.00001   0.00000  -0.00004   0.00000
  68 17  H  1S          0.00014   0.00000   0.00000   0.00002   0.00000
  69        2S         -0.00017   0.00000   0.00000  -0.00010   0.00001
  70 18  O  1S         -0.00042   0.00000   0.00000   0.00009  -0.00001
  71        2S          0.00012   0.00000   0.00000  -0.00003   0.00000
  72        2PX         0.00014   0.00000   0.00000   0.00000   0.00000
  73        2PY         0.00007   0.00000   0.00000  -0.00001   0.00000
  74        2PZ        -0.00005   0.00000   0.00000   0.00000   0.00000
  75        3S         -0.00009   0.00000   0.00000   0.00011  -0.00001
  76        3PX        -0.00034   0.00000   0.00000  -0.00002   0.00000
  77        3PY        -0.00022   0.00000   0.00000   0.00003   0.00000
  78        3PZ         0.00016   0.00000   0.00000  -0.00002   0.00000
  79 19  H  1S          0.00000   0.00011   0.00000   0.00000   0.00000
  80        2S          0.00002  -0.00077   0.00000  -0.00001   0.00000
  81 20  H  1S          0.00000  -0.00006   0.00000   0.00000   0.00000
  82        2S          0.00001   0.00012   0.00000  -0.00001   0.00000
  83 21  O  1S         -0.00003   0.00124   0.00000   0.00000   0.00000
  84        2S          0.00000  -0.00010   0.00000   0.00000   0.00000
  85        2PX         0.00000  -0.00002   0.00000  -0.00001   0.00000
  86        2PY         0.00000   0.00002   0.00000   0.00001   0.00000
  87        2PZ         0.00000   0.00005   0.00000   0.00000   0.00000
  88        3S         -0.00001   0.00046   0.00000   0.00001   0.00000
  89        3PX         0.00000   0.00002   0.00000   0.00001   0.00000
  90        3PY         0.00001  -0.00011   0.00000  -0.00001   0.00000
  91        3PZ         0.00001  -0.00024   0.00000   0.00000   0.00000
  92 22  O  1S          0.00007  -0.00003   0.00000   0.00000   0.00000
  93        2S         -0.00002   0.00001   0.00000   0.00000   0.00000
  94        2PX         0.00002   0.00000   0.00000   0.00000   0.00000
  95        2PY         0.00001   0.00000   0.00000   0.00000   0.00000
  96        2PZ         0.00001   0.00000   0.00000   0.00000   0.00000
  97        3S          0.00008  -0.00003   0.00000   0.00000   0.00000
  98        3PX        -0.00006   0.00001   0.00000   0.00000   0.00000
  99        3PY        -0.00003   0.00000   0.00000   0.00000   0.00000
 100        3PZ        -0.00003  -0.00001   0.00000   0.00000   0.00000
 101 23  H  1S         -0.00003   0.00000   0.00000   0.00000   0.00000
 102        2S          0.00001  -0.00001   0.00000   0.00000   0.00000
 103 24  H  1S          0.00004  -0.00001   0.00000   0.00000   0.00000
 104        2S         -0.00014   0.00004   0.00000   0.00000   0.00000
 105 25  O  1S         -0.00047   0.00000  -0.00001   0.00000  -0.00003
 106        2S          0.00001   0.00000   0.00000   0.00000   0.00001
 107        2PX         0.00000   0.00000   0.00000   0.00000   0.00000
 108        2PY        -0.00001   0.00000   0.00000   0.00000   0.00000
 109        2PZ         0.00000   0.00000   0.00000   0.00000   0.00000
 110        3S         -0.00005   0.00000   0.00000   0.00000  -0.00001
 111        3PX        -0.00001   0.00000   0.00000   0.00000   0.00001
 112        3PY         0.00003   0.00000   0.00000   0.00000   0.00001
 113        3PZ         0.00002   0.00000   0.00000   0.00000   0.00001
 114 26  H  1S         -0.00001   0.00000   0.00000   0.00000   0.00000
 115        2S          0.00007   0.00000   0.00000   0.00001   0.00001
 116 27  H  1S          0.00001   0.00000   0.00000   0.00000   0.00000
 117        2S         -0.00002   0.00000   0.00000   0.00000  -0.00001
 118 28  O  1S          0.00000  -0.00006   0.00015  -0.00040   0.99493
 119        2S          0.00000  -0.00001   0.00003  -0.00008   0.02892
 120        2PX         0.00000   0.00000   0.00002   0.00003  -0.00137
 121        2PY         0.00000   0.00001  -0.00002  -0.00001   0.00118
 122        2PZ         0.00000   0.00001  -0.00002   0.00000   0.00087
 123        3S          0.00000   0.00001  -0.00001   0.00029  -0.01393
 124        3PX         0.00000   0.00001  -0.00004  -0.00013   0.00180
 125        3PY         0.00000  -0.00003   0.00006   0.00005  -0.00146
 126        3PZ         0.00000  -0.00002   0.00006   0.00008  -0.00117
 127 29  H  1S          0.00000   0.00000   0.00001  -0.00007   0.00023
 128        2S          0.00000   0.00001  -0.00006   0.00004   0.00289
 129 30  H  1S          0.00000   0.00000  -0.00001   0.00002   0.00005
 130        2S          0.00000   0.00001  -0.00002  -0.00050   0.00358
                          11        12        13        14        15
                           O         O         O         O         O
     Eigenvalues --    -0.92986  -0.92763  -0.91869  -0.91848  -0.91668
   1 1   H  1S          0.00991   0.00001   0.00124   0.00002  -0.00002
   2        2S          0.00684  -0.00026  -0.00048  -0.00008   0.00001
   3 2   H  1S          0.00846   0.00000   0.00101   0.00001  -0.00002
   4        2S          0.00014  -0.00007   0.00232   0.00001   0.00001
   5 3   O  1S         -0.01243   0.00001  -0.00169  -0.00002   0.00002
   6        2S          0.02819  -0.00007   0.00405   0.00003  -0.00005
   7        2PX        -0.00128   0.00000  -0.00010   0.00000   0.00000
   8        2PY        -0.00903   0.00001  -0.00131  -0.00001   0.00002
   9        2PZ         0.00230  -0.00001   0.00013   0.00000   0.00000
  10        3S          0.02341   0.00018   0.00257   0.00009  -0.00006
  11        3PX        -0.00096  -0.00001  -0.00039  -0.00001   0.00000
  12        3PY        -0.00388  -0.00004  -0.00003  -0.00001   0.00001
  13        3PZ        -0.00054   0.00005   0.00061   0.00003   0.00000
  14 4   O  1S         -0.00006  -0.00005  -0.00011  -0.20759   0.00189
  15        2S          0.00032   0.00021   0.00024   0.46198  -0.00410
  16        2PX         0.00009   0.00007   0.00008   0.15063  -0.00134
  17        2PY         0.00001  -0.00003   0.00001   0.01641  -0.00018
  18        2PZ         0.00004   0.00002   0.00003   0.06674  -0.00060
  19        3S         -0.00049  -0.00027   0.00023   0.44562  -0.00450
  20        3PX        -0.00018  -0.00017   0.00004   0.06771  -0.00083
  21        3PY        -0.00001   0.00022   0.00001   0.01341   0.00004
  22        3PZ        -0.00009  -0.00001   0.00002   0.03192  -0.00038
  23 5   H  1S          0.00004   0.00000   0.00008   0.16052  -0.00153
  24        2S          0.00050   0.00073   0.00000   0.00345   0.00082
  25 6   H  1S          0.00002   0.00007   0.00007   0.13822  -0.00121
  26        2S          0.00047  -0.00020   0.00000   0.00349  -0.00020
  27 7   O  1S         -0.00002  -0.00471  -0.00003  -0.00185  -0.20816
  28        2S          0.00006   0.01137   0.00006   0.00417   0.46262
  29        2PX         0.00001   0.00191   0.00001   0.00056   0.06319
  30        2PY         0.00001   0.00299   0.00002   0.00118   0.13149
  31        2PZ        -0.00001  -0.00166  -0.00001  -0.00065  -0.07139
  32        3S          0.00004   0.00643   0.00007   0.00380   0.44988
  33        3PX         0.00000  -0.00140  -0.00002   0.00029   0.03230
  34        3PY         0.00001   0.00099   0.00002   0.00050   0.06039
  35        3PZ         0.00000  -0.00004  -0.00001  -0.00018  -0.03291
  36 8   H  1S          0.00002   0.00283   0.00002   0.00128   0.14408
  37        2S          0.00003   0.00800   0.00005   0.00013   0.00495
  38 9   H  1S          0.00002   0.00384   0.00003   0.00133   0.15209
  39        2S         -0.00001  -0.00155  -0.00006   0.00029   0.00109
  40 10  O  1S         -0.00005  -0.00009  -0.20923   0.00011   0.00003
  41        2S          0.00014   0.00017   0.46469  -0.00024  -0.00007
  42        2PX         0.00001  -0.00001   0.00221   0.00000   0.00000
  43        2PY         0.00001   0.00002   0.06321  -0.00003  -0.00001
  44        2PZ         0.00004   0.00006   0.14263  -0.00007  -0.00002
  45        3S          0.00005   0.00034   0.45343  -0.00024  -0.00008
  46        3PX        -0.00007   0.00007  -0.00058   0.00000  -0.00002
  47        3PY         0.00004   0.00001   0.02906  -0.00002   0.00000
  48        3PZ        -0.00002   0.00008   0.06748  -0.00004  -0.00001
  49 11  H  1S          0.00005   0.00005   0.14360  -0.00007  -0.00002
  50        2S         -0.00008   0.00005   0.00511   0.00000  -0.00002
  51 12  H  1S          0.00003   0.00010   0.14745  -0.00008  -0.00003
  52        2S          0.00019  -0.00027   0.00378   0.00000   0.00004
  53 13  O  1S          0.00000  -0.00002   0.00000  -0.00020  -0.00147
  54        2S          0.00000   0.00006   0.00008   0.00058   0.00412
  55        2PX         0.00000   0.00002   0.00002   0.00018   0.00128
  56        2PY         0.00000   0.00001   0.00001   0.00001   0.00019
  57        2PZ         0.00000   0.00000   0.00000   0.00004   0.00026
  58        3S          0.00000  -0.00004  -0.00024  -0.00010  -0.00029
  59        3PX         0.00000  -0.00003  -0.00009  -0.00021  -0.00115
  60        3PY         0.00000  -0.00004  -0.00002   0.00023   0.00033
  61        3PZ         0.00000  -0.00002  -0.00001  -0.00016  -0.00141
  62 14  H  1S          0.00000   0.00003   0.00000   0.00018   0.00145
  63        2S          0.00000  -0.00002   0.00018  -0.00021  -0.00131
  64 15  H  1S          0.00000  -0.00001  -0.00002  -0.00001   0.00011
  65        2S          0.00000   0.00022   0.00023   0.00121   0.00796
  66 16  H  1S          0.12895  -0.00086  -0.00012  -0.00008   0.00001
  67        2S          0.00429   0.00199   0.00005   0.00017  -0.00007
  68 17  H  1S          0.15650  -0.00075  -0.00014  -0.00011   0.00000
  69        2S          0.00253  -0.00048  -0.00002   0.00053   0.00001
  70 18  O  1S         -0.20885   0.00112   0.00017   0.00011   0.00000
  71        2S          0.46440  -0.00222  -0.00040  -0.00013   0.00000
  72        2PX        -0.07713   0.00042   0.00006   0.00002   0.00000
  73        2PY         0.04280  -0.00031  -0.00004   0.00000   0.00000
  74        2PZ        -0.13148   0.00061   0.00011   0.00005   0.00000
  75        3S          0.45510  -0.00336  -0.00033  -0.00070   0.00005
  76        3PX        -0.03381   0.00008   0.00007   0.00012   0.00000
  77        3PY         0.01568   0.00043   0.00003  -0.00013  -0.00002
  78        3PZ        -0.06620   0.00090   0.00002   0.00013  -0.00002
  79 19  H  1S          0.00080   0.15076  -0.00005  -0.00008  -0.00399
  80        2S          0.00008   0.00336  -0.00014   0.00009   0.00737
  81 20  H  1S          0.00074   0.14774  -0.00008  -0.00008  -0.00351
  82        2S          0.00026   0.00389   0.00001   0.00002  -0.00123
  83 21  O  1S         -0.00108  -0.21069   0.00010   0.00011   0.00524
  84        2S          0.00242   0.46758  -0.00024  -0.00024  -0.01072
  85        2PX         0.00001   0.00161   0.00001   0.00000  -0.00013
  86        2PY        -0.00073  -0.13958   0.00007   0.00007   0.00339
  87        2PZ        -0.00017  -0.03358   0.00002   0.00001   0.00032
  88        3S          0.00212   0.45113  -0.00013  -0.00031  -0.01506
  89        3PX         0.00002   0.00154  -0.00002  -0.00002  -0.00019
  90        3PY        -0.00012  -0.06134   0.00000   0.00006   0.00225
  91        3PZ        -0.00003  -0.01595  -0.00003   0.00003   0.00252
  92 22  O  1S         -0.00001  -0.00026  -0.00233   0.00000  -0.00003
  93        2S          0.00004   0.00104   0.00540   0.00000   0.00001
  94        2PX        -0.00001  -0.00032  -0.00147   0.00000   0.00000
  95        2PY         0.00000  -0.00003  -0.00050   0.00000  -0.00001
  96        2PZ         0.00000   0.00005  -0.00047   0.00000  -0.00002
  97        3S         -0.00004  -0.00109   0.00367   0.00000   0.00025
  98        3PX         0.00004   0.00088  -0.00036   0.00000  -0.00012
  99        3PY         0.00000  -0.00023   0.00064   0.00000   0.00001
 100        3PZ        -0.00002  -0.00072  -0.00089   0.00000   0.00008
 101 23  H  1S          0.00001   0.00027   0.00130   0.00000   0.00000
 102        2S         -0.00003  -0.00056   0.00051   0.00000   0.00007
 103 24  H  1S         -0.00001  -0.00012   0.00089   0.00000   0.00006
 104        2S          0.00014   0.00341   0.00326  -0.00001  -0.00036
 105 25  O  1S         -0.00032   0.00000  -0.00003  -0.00003   0.00000
 106        2S          0.00100  -0.00001   0.00025   0.00005   0.00000
 107        2PX         0.00021   0.00000   0.00003   0.00001   0.00000
 108        2PY        -0.00015   0.00000  -0.00007  -0.00001   0.00000
 109        2PZ        -0.00018   0.00000  -0.00005  -0.00001   0.00000
 110        3S         -0.00050  -0.00001  -0.00058   0.00006   0.00000
 111        3PX         0.00003   0.00000  -0.00002  -0.00001   0.00000
 112        3PY         0.00040   0.00000   0.00041  -0.00001   0.00000
 113        3PZ         0.00058   0.00000   0.00027  -0.00001   0.00000
 114 26  H  1S         -0.00005   0.00000  -0.00008   0.00002   0.00000
 115        2S          0.00239   0.00001   0.00128   0.00001   0.00000
 116 27  H  1S          0.00024   0.00000   0.00007   0.00002   0.00000
 117        2S         -0.00022   0.00000  -0.00026   0.00000   0.00000
 118 28  O  1S         -0.00002   0.00000  -0.00001  -0.00705   0.00001
 119        2S          0.00002   0.00001   0.00002   0.01620  -0.00001
 120        2PX         0.00000   0.00000   0.00000  -0.00336   0.00001
 121        2PY         0.00000   0.00000   0.00000   0.00227  -0.00003
 122        2PZ         0.00000   0.00000   0.00000   0.00281  -0.00003
 123        3S          0.00012  -0.00002   0.00003   0.01169   0.00003
 124        3PX        -0.00003   0.00000   0.00000  -0.00027  -0.00004
 125        3PY         0.00000   0.00000   0.00001  -0.00044   0.00013
 126        3PZ         0.00004   0.00000   0.00001   0.00024   0.00010
 127 29  H  1S          0.00000   0.00000   0.00001   0.00481  -0.00002
 128        2S          0.00001  -0.00001   0.00000  -0.00017  -0.00003
 129 30  H  1S          0.00003   0.00000   0.00001   0.00556  -0.00002
 130        2S         -0.00015   0.00004   0.00000   0.00775  -0.00013
                          16        17        18        19        20
                           O         O         O         O         O
     Eigenvalues --    -0.91482  -0.89696  -0.89248  -0.89034  -0.88554
   1 1   H  1S          0.14086  -0.00015  -0.00107   0.00002   0.00000
   2        2S          0.00061  -0.00055   0.00124  -0.00005   0.00000
   3 2   H  1S          0.14676  -0.00035  -0.00082   0.00001   0.00000
   4        2S          0.00534   0.00239   0.00023  -0.00001   0.00001
   5 3   O  1S         -0.20921   0.00035   0.00129  -0.00002   0.00000
   6        2S          0.46378  -0.00043  -0.00282   0.00004   0.00000
   7        2PX        -0.01694   0.00007   0.00010   0.00000   0.00000
   8        2PY        -0.15074   0.00015   0.00092  -0.00001   0.00000
   9        2PZ         0.02693  -0.00016  -0.00011   0.00000   0.00000
  10        3S          0.45714  -0.00198  -0.00345   0.00007   0.00000
  11        3PX        -0.01111  -0.00025  -0.00058   0.00002   0.00000
  12        3PY        -0.07107   0.00070   0.00128  -0.00004   0.00000
  13        3PZ         0.01365   0.00067  -0.00031   0.00001   0.00000
  14 4   O  1S          0.00002   0.00000   0.00020   0.00784  -0.00047
  15        2S         -0.00007   0.00000  -0.00046  -0.01707   0.00101
  16        2PX        -0.00002   0.00000  -0.00015  -0.00577   0.00035
  17        2PY         0.00000   0.00000   0.00001   0.00025  -0.00005
  18        2PZ        -0.00001   0.00000  -0.00007  -0.00236   0.00014
  19        3S          0.00001   0.00000  -0.00048  -0.02069   0.00132
  20        3PX         0.00002   0.00000  -0.00008  -0.00366   0.00021
  21        3PY         0.00000   0.00000   0.00000  -0.00030   0.00007
  22        3PZ         0.00001   0.00000  -0.00007  -0.00388   0.00019
  23 5   H  1S         -0.00002   0.00000  -0.00016  -0.00589   0.00032
  24        2S         -0.00006   0.00000  -0.00003  -0.00132   0.00032
  25 6   H  1S         -0.00001   0.00000  -0.00012  -0.00532   0.00034
  26        2S         -0.00004   0.00000   0.00012   0.00961  -0.00098
  27 7   O  1S         -0.00002   0.00003   0.00000   0.00023   0.00195
  28        2S          0.00004  -0.00011  -0.00001  -0.00048  -0.00312
  29        2PX         0.00001  -0.00002   0.00000  -0.00009  -0.00092
  30        2PY         0.00001  -0.00002   0.00000  -0.00012  -0.00081
  31        2PZ        -0.00001   0.00002   0.00000   0.00007   0.00044
  32        3S          0.00004   0.00010  -0.00001  -0.00064  -0.00901
  33        3PX         0.00000   0.00011   0.00000   0.00001   0.00132
  34        3PY         0.00001   0.00000   0.00000  -0.00011  -0.00243
  35        3PZ         0.00000  -0.00001   0.00000   0.00007   0.00147
  36 8   H  1S          0.00001   0.00002   0.00000  -0.00016  -0.00121
  37        2S          0.00001  -0.00035   0.00000  -0.00004  -0.00096
  38 9   H  1S          0.00001  -0.00005   0.00000  -0.00013  -0.00139
  39        2S          0.00000   0.00008   0.00000   0.00026   0.00830
  40 10  O  1S          0.00184   0.00262   0.00007   0.00001   0.00002
  41        2S         -0.00358  -0.00541  -0.00002  -0.00001   0.00000
  42        2PX         0.00014   0.00023  -0.00003  -0.00001  -0.00002
  43        2PY        -0.00059  -0.00087   0.00001   0.00000   0.00001
  44        2PZ        -0.00112  -0.00162  -0.00003  -0.00001  -0.00001
  45        3S         -0.00578  -0.00781  -0.00066  -0.00006  -0.00025
  46        3PX        -0.00100  -0.00062   0.00022   0.00003   0.00012
  47        3PY         0.00004  -0.00097  -0.00020  -0.00002  -0.00010
  48        3PZ        -0.00134  -0.00163  -0.00012  -0.00001  -0.00004
  49 11  H  1S         -0.00116  -0.00161  -0.00009  -0.00001  -0.00004
  50        2S         -0.00063  -0.00062   0.00082   0.00009   0.00041
  51 12  H  1S         -0.00145  -0.00199  -0.00003   0.00000   0.00000
  52        2S          0.00330   0.00433  -0.00004  -0.00003  -0.00009
  53 13  O  1S          0.00000   0.00000  -0.00029  -0.01843  -0.20957
  54        2S          0.00000   0.00000   0.00065   0.04098   0.46605
  55        2PX         0.00000   0.00000   0.00020   0.01250   0.14177
  56        2PY         0.00000   0.00000   0.00007   0.00431   0.04916
  57        2PZ         0.00000   0.00000   0.00000  -0.00019  -0.00251
  58        3S          0.00000   0.00000   0.00063   0.03971   0.46623
  59        3PX         0.00000   0.00000   0.00009   0.00599   0.07374
  60        3PY         0.00000   0.00000   0.00005   0.00258   0.02063
  61        3PZ         0.00000   0.00000   0.00002   0.00091  -0.00067
  62 14  H  1S          0.00000   0.00000   0.00019   0.01217   0.14299
  63        2S          0.00000   0.00000   0.00003   0.00220   0.00679
  64 15  H  1S          0.00000   0.00000   0.00017   0.01063   0.12586
  65        2S          0.00000   0.00000   0.00005   0.00264   0.00581
  66 16  H  1S         -0.00932  -0.00001  -0.00011  -0.00001   0.00000
  67        2S          0.00462   0.00008  -0.00077   0.00002   0.00000
  68 17  H  1S         -0.01085   0.00000  -0.00042   0.00001   0.00000
  69        2S          0.00155   0.00001   0.00378  -0.00018   0.00001
  70 18  O  1S          0.01330  -0.00001   0.00042   0.00000   0.00000
  71        2S         -0.03000   0.00001  -0.00036  -0.00003   0.00000
  72        2PX         0.00498  -0.00001   0.00003   0.00001   0.00000
  73        2PY        -0.00294   0.00000   0.00013  -0.00001   0.00000
  74        2PZ         0.00834   0.00000   0.00023   0.00000   0.00000
  75        3S         -0.03061  -0.00002  -0.00301   0.00010   0.00000
  76        3PX         0.00485   0.00003   0.00080  -0.00004   0.00000
  77        3PY         0.00092   0.00003  -0.00118   0.00005   0.00000
  78        3PZ         0.00332   0.00000   0.00024  -0.00001   0.00000
  79 19  H  1S         -0.00004  -0.00042   0.00000   0.00000   0.00000
  80        2S         -0.00005   0.00170   0.00000   0.00000   0.00005
  81 20  H  1S         -0.00004  -0.00023   0.00000   0.00000   0.00001
  82        2S         -0.00005  -0.00017   0.00001   0.00000  -0.00001
  83 21  O  1S          0.00005   0.00039   0.00000   0.00000  -0.00002
  84        2S         -0.00013  -0.00066   0.00001   0.00001   0.00004
  85        2PX         0.00000  -0.00003   0.00000   0.00000   0.00000
  86        2PY         0.00005   0.00024   0.00000   0.00000  -0.00001
  87        2PZ         0.00001  -0.00004   0.00000   0.00000   0.00000
  88        3S         -0.00005  -0.00176   0.00000   0.00001   0.00001
  89        3PX        -0.00001   0.00032   0.00000   0.00000   0.00000
  90        3PY        -0.00003   0.00042   0.00000   0.00000   0.00000
  91        3PZ        -0.00002   0.00043   0.00000   0.00000   0.00001
  92 22  O  1S         -0.00025  -0.21174   0.00000   0.00000   0.00000
  93        2S          0.00065   0.47041  -0.00001   0.00000   0.00000
  94        2PX        -0.00019  -0.12556   0.00000   0.00000   0.00000
  95        2PY        -0.00003  -0.04325   0.00000   0.00000   0.00000
  96        2PZ        -0.00004  -0.05217   0.00000   0.00000   0.00000
  97        3S          0.00017   0.47560   0.00000   0.00000   0.00000
  98        3PX         0.00019  -0.06686   0.00000   0.00000   0.00000
  99        3PY        -0.00001  -0.02174   0.00000   0.00000   0.00000
 100        3PZ        -0.00008  -0.02557   0.00000   0.00000   0.00000
 101 23  H  1S          0.00022   0.13250   0.00000   0.00000   0.00000
 102        2S         -0.00014   0.00710   0.00000   0.00000   0.00000
 103 24  H  1S          0.00008   0.12697   0.00000   0.00000   0.00000
 104        2S          0.00077   0.00809  -0.00002   0.00000   0.00000
 105 25  O  1S         -0.00109   0.00000  -0.21077   0.00481  -0.00013
 106        2S          0.00290   0.00000   0.46819  -0.01058   0.00028
 107        2PX         0.00071   0.00000   0.12757  -0.00289   0.00008
 108        2PY        -0.00029   0.00000  -0.04030   0.00088  -0.00002
 109        2PZ        -0.00041   0.00000  -0.06290   0.00141  -0.00004
 110        3S          0.00041   0.00003   0.46980  -0.01131   0.00035
 111        3PX         0.00016   0.00000   0.06600  -0.00199   0.00009
 112        3PY         0.00023  -0.00001  -0.01875   0.00055  -0.00002
 113        3PZ         0.00032  -0.00001  -0.03067   0.00080  -0.00003
 114 26  H  1S          0.00055   0.00001   0.14058  -0.00337   0.00010
 115        2S          0.00261  -0.00004   0.00722   0.00099  -0.00011
 116 27  H  1S          0.00050   0.00000   0.12713  -0.00279   0.00007
 117        2S          0.00105   0.00000   0.00623  -0.00017   0.00001
 118 28  O  1S         -0.00001   0.00000  -0.00476  -0.21039   0.01881
 119        2S          0.00002   0.00000   0.01060   0.46693  -0.04207
 120        2PX         0.00000   0.00000  -0.00219  -0.09551   0.00859
 121        2PY         0.00000   0.00000   0.00182   0.08038  -0.00727
 122        2PZ         0.00000   0.00000   0.00142   0.06285  -0.00581
 123        3S          0.00002   0.00000   0.01012   0.46300  -0.04163
 124        3PX         0.00000   0.00000  -0.00060  -0.04468   0.00419
 125        3PY         0.00000   0.00000   0.00096   0.04064  -0.00508
 126        3PZ         0.00000   0.00000   0.00070   0.02940  -0.00428
 127 29  H  1S          0.00001   0.00000   0.00296   0.13371  -0.01232
 128        2S         -0.00001   0.00000   0.00054   0.00686   0.00077
 129 30  H  1S          0.00000   0.00000   0.00322   0.14479  -0.01301
 130        2S          0.00001   0.00000   0.00046   0.00316   0.00028
                          21        22        23        24        25
                           O         O         O         O         O
     Eigenvalues --    -0.51073  -0.47512  -0.47392  -0.47080  -0.46902
   1 1   H  1S          0.00008  -0.03415  -0.02846   0.00148   0.25516
   2        2S         -0.00024  -0.02623  -0.01692   0.00091   0.15238
   3 2   H  1S         -0.00006   0.03295   0.02906  -0.00148  -0.25906
   4        2S          0.00002   0.01816   0.02233  -0.00090  -0.15944
   5 3   O  1S          0.00000  -0.00117   0.00078   0.00000  -0.00249
   6        2S         -0.00003   0.00226  -0.00141   0.00000   0.00463
   7        2PX        -0.00004   0.02310   0.01936  -0.00102  -0.17787
   8        2PY         0.00001  -0.01275  -0.01300   0.00065   0.11657
   9        2PZ         0.00007  -0.05846  -0.05166   0.00263   0.46011
  10        3S          0.00013   0.00659  -0.00492   0.00002   0.01317
  11        3PX        -0.00005   0.01055   0.00816  -0.00047  -0.08251
  12        3PY        -0.00001  -0.00481  -0.00492   0.00028   0.05232
  13        3PZ         0.00013  -0.02544  -0.02382   0.00121   0.21345
  14 4   O  1S         -0.00001   0.00005   0.00000   0.00180   0.00000
  15        2S          0.00000  -0.00007  -0.00001  -0.00509   0.00001
  16        2PX        -0.00003  -0.00078  -0.00011  -0.05144   0.00016
  17        2PY         0.00006   0.00287   0.00038   0.17832  -0.00053
  18        2PZ         0.00001   0.00047   0.00005   0.02479  -0.00006
  19        3S          0.00011  -0.00043  -0.00001  -0.00714   0.00001
  20        3PX         0.00002  -0.00026  -0.00006  -0.02285   0.00010
  21        3PY        -0.00002   0.00081   0.00020   0.08090  -0.00031
  22        3PZ         0.00001   0.00007   0.00002   0.00655  -0.00002
  23 5   H  1S         -0.00003  -0.00151  -0.00020  -0.09607   0.00029
  24        2S         -0.00021  -0.00157  -0.00008  -0.05797   0.00006
  25 6   H  1S          0.00003   0.00152   0.00021   0.09695  -0.00029
  26        2S          0.00006   0.00246   0.00011   0.08101  -0.00010
  27 7   O  1S         -0.00161  -0.00001   0.00000  -0.00002   0.00000
  28        2S          0.00280   0.00002   0.00003   0.00004   0.00001
  29        2PX        -0.01988  -0.00033   0.00000  -0.00043  -0.00004
  30        2PY         0.00790   0.00013  -0.00001   0.00018   0.00001
  31        2PZ        -0.00520  -0.00008   0.00000  -0.00024  -0.00001
  32        3S          0.01029   0.00003  -0.00010   0.00022   0.00000
  33        3PX        -0.00573  -0.00015   0.00003  -0.00016  -0.00001
  34        3PY         0.00416   0.00006  -0.00006   0.00004   0.00000
  35        3PZ        -0.00393  -0.00005   0.00002  -0.00038   0.00000
  36 8   H  1S         -0.01254  -0.00020   0.00001  -0.00021  -0.00002
  37        2S         -0.02104  -0.00015  -0.00002  -0.00038  -0.00003
  38 9   H  1S          0.01112   0.00019  -0.00002   0.00038   0.00002
  39        2S          0.00788   0.00011   0.00017  -0.00016   0.00004
  40 10  O  1S         -0.00001   0.00010   0.00062  -0.00002  -0.00062
  41        2S          0.00007  -0.00010  -0.00108  -0.00001   0.00042
  42        2PX        -0.00014   0.02033   0.43850  -0.00142   0.05432
  43        2PY         0.00011  -0.01087  -0.23522   0.00075  -0.02935
  44        2PZ        -0.00003   0.00498   0.10617  -0.00036   0.01256
  45        3S         -0.00014  -0.00088  -0.00328   0.00027   0.00646
  46        3PX        -0.00015   0.00891   0.19813  -0.00075   0.02706
  47        3PY         0.00009  -0.00485  -0.10690   0.00043  -0.01407
  48        3PZ        -0.00010   0.00205   0.04769  -0.00012   0.00733
  49 11  H  1S          0.00012  -0.01206  -0.26069   0.00085  -0.03246
  50        2S         -0.00004  -0.00766  -0.16346   0.00013  -0.01956
  51 12  H  1S         -0.00013   0.01212   0.26050  -0.00086   0.03172
  52        2S          0.00027   0.00843   0.15942  -0.00049   0.01000
  53 13  O  1S          0.00003  -0.00001  -0.00015  -0.00066  -0.00002
  54        2S         -0.00009   0.00001   0.00004   0.00159   0.00000
  55        2PX         0.00003   0.00000  -0.00012   0.00106  -0.00002
  56        2PY        -0.00034  -0.00005  -0.00012  -0.00475   0.00001
  57        2PZ         0.00023   0.00003   0.00005   0.00276  -0.00001
  58        3S         -0.00004   0.00011   0.00178   0.00307   0.00021
  59        3PX         0.00001   0.00002   0.00032   0.00067   0.00004
  60        3PY        -0.00020  -0.00002   0.00013  -0.00267   0.00003
  61        3PZ         0.00012   0.00000  -0.00001  -0.00031   0.00000
  62 14  H  1S         -0.00022  -0.00002  -0.00004  -0.00229   0.00001
  63        2S         -0.00010  -0.00012  -0.00149  -0.00659  -0.00016
  64 15  H  1S          0.00022   0.00003   0.00005   0.00289  -0.00001
  65        2S          0.00009  -0.00003  -0.00111   0.00250  -0.00016
  66 16  H  1S          0.00085  -0.25527   0.01579   0.00229  -0.03297
  67        2S          0.00321  -0.16787   0.01023   0.00126  -0.01825
  68 17  H  1S         -0.00085   0.25967  -0.01561  -0.00233   0.02963
  69        2S         -0.00099   0.15528  -0.01013  -0.00052   0.02488
  70 18  O  1S          0.00009   0.00604  -0.00067  -0.00001   0.00337
  71        2S          0.00003  -0.01041   0.00146   0.00007  -0.00831
  72        2PX         0.00067  -0.20350   0.01129   0.00184  -0.01495
  73        2PY        -0.00157   0.43060  -0.02696  -0.00381   0.05854
  74        2PZ        -0.00073   0.18762  -0.01126  -0.00171   0.02108
  75        3S         -0.00133  -0.03258   0.00288  -0.00019  -0.01306
  76        3PX         0.00017  -0.09268   0.00458   0.00102  -0.00173
  77        3PY        -0.00022   0.19743  -0.01259  -0.00200   0.02928
  78        3PZ         0.00030   0.09390  -0.00536  -0.00087   0.00862
  79 19  H  1S         -0.26831  -0.00098  -0.00025   0.00010   0.00002
  80        2S         -0.14784  -0.00105  -0.00011  -0.00007  -0.00009
  81 20  H  1S          0.26669   0.00176   0.00014  -0.00003   0.00010
  82        2S          0.14168  -0.00028   0.00022  -0.00013  -0.00014
  83 21  O  1S         -0.00164   0.00003   0.00001  -0.00001   0.00000
  84        2S          0.00359   0.00009  -0.00008   0.00003   0.00003
  85        2PX         0.11293   0.00035   0.00021   0.00007  -0.00006
  86        2PY        -0.10912  -0.00200   0.00012  -0.00007  -0.00023
  87        2PZ         0.48655   0.00193   0.00039  -0.00015   0.00001
  88        3S          0.00739   0.00014   0.00001   0.00006   0.00005
  89        3PX         0.04842  -0.00011   0.00018   0.00018  -0.00009
  90        3PY        -0.04901  -0.00239   0.00022  -0.00017  -0.00033
  91        3PZ         0.21013   0.00029   0.00013  -0.00012  -0.00004
  92 22  O  1S         -0.00048   0.00003   0.00132   0.00000   0.00001
  93        2S          0.00043  -0.00020  -0.00327   0.00001   0.00006
  94        2PX         0.00187  -0.00029  -0.01056   0.00006   0.00486
  95        2PY        -0.00090   0.00052   0.01065  -0.00006  -0.00438
  96        2PZ        -0.00304   0.00073   0.01919  -0.00013  -0.01142
  97        3S          0.00445   0.00025  -0.00612   0.00002   0.00004
  98        3PX        -0.00069  -0.00036  -0.00484   0.00003   0.00171
  99        3PY         0.00007   0.00054   0.00862  -0.00005  -0.00265
 100        3PZ        -0.00035   0.00054   0.00800  -0.00006  -0.00625
 101 23  H  1S          0.00173  -0.00054  -0.01285   0.00008   0.00652
 102        2S          0.00150   0.00000  -0.00532   0.00004   0.00456
 103 24  H  1S         -0.00203   0.00041   0.01143  -0.00007  -0.00621
 104        2S         -0.00791  -0.00032   0.01495  -0.00008  -0.00550
 105 25  O  1S          0.00000   0.00036  -0.00024  -0.00001   0.00070
 106        2S          0.00001  -0.00099   0.00036   0.00003  -0.00128
 107        2PX         0.00000  -0.00229   0.00089   0.00006  -0.00051
 108        2PY         0.00001  -0.00509   0.00226   0.00000  -0.00288
 109        2PZ         0.00000  -0.00126   0.00107   0.00013  -0.00089
 110        3S         -0.00001  -0.00134   0.00181   0.00004  -0.00468
 111        3PX         0.00000  -0.00125   0.00051   0.00006  -0.00021
 112        3PY         0.00001  -0.00299   0.00073  -0.00018  -0.00199
 113        3PZ         0.00000   0.00041   0.00018   0.00026   0.00050
 114 26  H  1S          0.00000   0.00261  -0.00141  -0.00002   0.00147
 115        2S          0.00001   0.00333  -0.00304  -0.00014   0.00445
 116 27  H  1S          0.00001  -0.00303   0.00131   0.00005  -0.00167
 117        2S          0.00000  -0.00162   0.00066   0.00007   0.00223
 118 28  O  1S          0.00000   0.00005   0.00001   0.00398  -0.00001
 119        2S          0.00000  -0.00013  -0.00001  -0.00794   0.00002
 120        2PX         0.00000  -0.00011  -0.00013  -0.01803   0.00010
 121        2PY        -0.00001  -0.00227  -0.00090  -0.27686   0.00122
 122        2PZ         0.00001   0.00304   0.00130   0.37424  -0.00164
 123        3S          0.00000  -0.00018   0.00000  -0.01907   0.00009
 124        3PX         0.00000   0.00002  -0.00018  -0.00538   0.00004
 125        3PY         0.00000  -0.00105  -0.00039  -0.12857   0.00057
 126        3PZ         0.00001   0.00142   0.00064   0.17081  -0.00074
 127 29  H  1S         -0.00001  -0.00196  -0.00078  -0.23916   0.00105
 128        2S         -0.00001  -0.00114  -0.00060  -0.14469   0.00063
 129 30  H  1S          0.00001   0.00200   0.00083   0.24300  -0.00107
 130        2S          0.00000   0.00116   0.00046   0.14798  -0.00065
                          26        27        28        29        30
                           O         O         O         O         O
     Eigenvalues --    -0.45909  -0.45562  -0.45305  -0.44529  -0.43318
   1 1   H  1S         -0.00001   0.00920  -0.00006   0.00180   0.00000
   2        2S         -0.00002   0.00412   0.00001   0.00048   0.00000
   3 2   H  1S          0.00000  -0.00890   0.00006  -0.00102   0.00000
   4        2S          0.00000   0.00424   0.00005  -0.00145   0.00000
   5 3   O  1S          0.00000   0.00047   0.00001  -0.00025   0.00000
   6        2S          0.00000  -0.00009  -0.00001   0.00081   0.00000
   7        2PX         0.00000  -0.00637   0.00003   0.00043   0.00000
   8        2PY         0.00000   0.00355  -0.00003   0.00005   0.00000
   9        2PZ        -0.00001   0.01617  -0.00011   0.00346   0.00000
  10        3S          0.00002  -0.00584  -0.00005   0.00061   0.00000
  11        3PX         0.00000  -0.00411   0.00001   0.00131   0.00000
  12        3PY         0.00000   0.00358  -0.00001   0.00010   0.00000
  13        3PZ         0.00000   0.00990  -0.00006   0.00210   0.00000
  14 4   O  1S         -0.00005   0.00000  -0.00548  -0.00005   0.00005
  15        2S          0.00017   0.00000   0.00993   0.00006   0.00009
  16        2PX        -0.00138  -0.00003  -0.13305  -0.00047   0.00150
  17        2PY         0.00526   0.00009   0.45633   0.00149  -0.00398
  18        2PZ         0.00121   0.00002   0.08160   0.00028   0.00046
  19        3S          0.00025   0.00000   0.03049   0.00037  -0.00013
  20        3PX        -0.00052  -0.00001  -0.05579  -0.00019   0.00087
  21        3PY         0.00265   0.00004   0.21022   0.00081  -0.00217
  22        3PZ         0.00104   0.00001   0.04240   0.00016   0.00156
  23 5   H  1S         -0.00267  -0.00005  -0.24425  -0.00080   0.00252
  24        2S         -0.00178  -0.00003  -0.15178  -0.00055  -0.00004
  25 6   H  1S          0.00286   0.00005   0.24292   0.00076  -0.00169
  26        2S          0.00165   0.00004   0.15624   0.00028  -0.00126
  27 7   O  1S         -0.00029   0.00000  -0.00020   0.00000  -0.00345
  28        2S         -0.00025   0.00000   0.00037   0.00000   0.00569
  29        2PX         0.46643   0.00027  -0.00571  -0.00002  -0.04406
  30        2PY        -0.18987  -0.00011   0.00212   0.00000   0.01248
  31        2PZ         0.10115   0.00005  -0.00164  -0.00001  -0.00800
  32        3S          0.00263   0.00001   0.00154   0.00000   0.02349
  33        3PX         0.21316   0.00010  -0.00265  -0.00001  -0.02482
  34        3PY        -0.08636  -0.00003   0.00096   0.00000   0.00892
  35        3PZ         0.04603  -0.00001  -0.00164   0.00000  -0.00684
  36 8   H  1S          0.26231   0.00017  -0.00310  -0.00001  -0.02463
  37        2S          0.17575   0.00007  -0.00284  -0.00001  -0.01761
  38 9   H  1S         -0.25991  -0.00015   0.00333   0.00001   0.01916
  39        2S         -0.15893  -0.00010   0.00011   0.00001  -0.01149
  40 10  O  1S          0.00000   0.00077   0.00001  -0.00037   0.00000
  41        2S          0.00001  -0.00138   0.00000   0.00037   0.00002
  42        2PX         0.00002  -0.02265   0.00014  -0.00227   0.00012
  43        2PY        -0.00001   0.01122  -0.00007   0.00103  -0.00002
  44        2PZ         0.00000  -0.00461   0.00004  -0.00098   0.00001
  45        3S         -0.00002  -0.00511  -0.00012   0.00345  -0.00006
  46        3PX         0.00001  -0.01218   0.00012  -0.00165   0.00013
  47        3PY        -0.00001   0.00466  -0.00008   0.00102   0.00001
  48        3PZ        -0.00001  -0.00259   0.00000  -0.00024  -0.00005
  49 11  H  1S         -0.00001   0.01311  -0.00009   0.00120  -0.00004
  50        2S          0.00001   0.00789   0.00015  -0.00286   0.00009
  51 12  H  1S          0.00001  -0.01243   0.00009  -0.00141   0.00008
  52        2S          0.00003  -0.00112   0.00002  -0.00182  -0.00004
  53 13  O  1S         -0.00074   0.00001   0.00029   0.00000   0.00464
  54        2S          0.00193   0.00000  -0.00082  -0.00001  -0.00831
  55        2PX        -0.00609   0.00001  -0.00108  -0.00003  -0.09088
  56        2PY         0.02952   0.00001   0.00450   0.00006   0.36935
  57        2PZ        -0.02442  -0.00001  -0.00327  -0.00005  -0.33726
  58        3S          0.00299  -0.00012  -0.00099   0.00007  -0.02358
  59        3PX        -0.00210  -0.00002  -0.00041   0.00000  -0.04919
  60        3PY         0.01554   0.00000   0.00220   0.00003   0.17975
  61        3PZ        -0.01091  -0.00001  -0.00057   0.00000  -0.16229
  62 14  H  1S          0.01958   0.00001   0.00259   0.00004   0.25399
  63        2S          0.01265   0.00008   0.00424   0.00003   0.17439
  64 15  H  1S         -0.01976  -0.00001  -0.00285  -0.00005  -0.25080
  65        2S         -0.01825   0.00009  -0.00320  -0.00012  -0.17944
  66 16  H  1S         -0.00014  -0.00132   0.00088  -0.00406   0.00000
  67        2S          0.00006   0.00090  -0.00016  -0.00312  -0.00002
  68 17  H  1S          0.00015   0.00123  -0.00084   0.00326  -0.00001
  69        2S          0.00008   0.00081   0.00025  -0.00527  -0.00001
  70 18  O  1S          0.00001   0.00020  -0.00002  -0.00066   0.00000
  71        2S         -0.00001  -0.00034   0.00007   0.00078   0.00000
  72        2PX        -0.00012  -0.00066   0.00070  -0.00271   0.00001
  73        2PY         0.00023   0.00234  -0.00142   0.00616  -0.00001
  74        2PZ         0.00009   0.00075  -0.00063   0.00383   0.00000
  75        3S         -0.00011  -0.00142   0.00002   0.00587   0.00002
  76        3PX        -0.00006  -0.00009   0.00052  -0.00257   0.00000
  77        3PY         0.00013   0.00158  -0.00094   0.00432  -0.00001
  78        3PZ         0.00008   0.00065  -0.00043   0.00202  -0.00001
  79 19  H  1S         -0.01416  -0.00351   0.00034  -0.00001   0.00096
  80        2S          0.01022   0.00098  -0.00037  -0.00002  -0.00136
  81 20  H  1S          0.01587   0.00247  -0.00014   0.00003  -0.00118
  82        2S          0.00798   0.00207  -0.00043  -0.00001  -0.00062
  83 21  O  1S          0.00198   0.00025  -0.00003   0.00000  -0.00021
  84        2S         -0.00332  -0.00077   0.00011   0.00000   0.00037
  85        2PX         0.00443   0.00286   0.00020   0.00001  -0.00020
  86        2PY        -0.00666   0.00042  -0.00022  -0.00004   0.00052
  87        2PZ         0.02968   0.00520  -0.00060   0.00002  -0.00220
  88        3S         -0.01439  -0.00144   0.00031   0.00000   0.00154
  89        3PX         0.00035   0.00278   0.00053   0.00000   0.00012
  90        3PY        -0.00124   0.00165  -0.00056  -0.00006   0.00003
  91        3PZ         0.01774   0.00198  -0.00047   0.00000  -0.00143
  92 22  O  1S          0.00001  -0.00079   0.00000  -0.00001   0.00000
  93        2S         -0.00004   0.00086   0.00000   0.00004   0.00001
  94        2PX         0.00023  -0.21749   0.00003  -0.00028  -0.00001
  95        2PY        -0.00018   0.15435  -0.00002   0.00016   0.00001
  96        2PZ        -0.00047   0.43033  -0.00006   0.00057   0.00004
  97        3S          0.00004   0.00457  -0.00001   0.00006   0.00003
  98        3PX         0.00002  -0.10712   0.00002  -0.00015  -0.00001
  99        3PY        -0.00007   0.07684  -0.00001   0.00005   0.00001
 100        3PZ        -0.00014   0.21111  -0.00003   0.00029   0.00002
 101 23  H  1S          0.00026  -0.25215   0.00004  -0.00032  -0.00002
 102        2S          0.00036  -0.16901   0.00002  -0.00023  -0.00003
 103 24  H  1S         -0.00024   0.25151  -0.00004   0.00033   0.00002
 104        2S         -0.00045   0.17692  -0.00001   0.00016  -0.00001
 105 25  O  1S          0.00000   0.00005   0.00003  -0.00452   0.00000
 106        2S          0.00000  -0.00007  -0.00005   0.00854   0.00000
 107        2PX        -0.00001  -0.00028  -0.00065   0.19777  -0.00004
 108        2PY        -0.00001  -0.00069  -0.00125   0.42172  -0.00006
 109        2PZ         0.00000  -0.00032  -0.00066   0.20678  -0.00003
 110        3S          0.00000  -0.00032  -0.00020   0.02250   0.00004
 111        3PX         0.00000  -0.00013  -0.00042   0.09926  -0.00002
 112        3PY        -0.00001  -0.00031  -0.00052   0.20429  -0.00005
 113        3PZ         0.00000  -0.00009  -0.00034   0.09812  -0.00002
 114 26  H  1S          0.00001   0.00042   0.00074  -0.25599   0.00004
 115        2S          0.00000   0.00059   0.00080  -0.17557  -0.00004
 116 27  H  1S         -0.00001  -0.00040  -0.00077   0.25114  -0.00004
 117        2S          0.00000  -0.00018  -0.00054   0.17225  -0.00001
 118 28  O  1S          0.00005   0.00000   0.00246  -0.00014   0.00030
 119        2S         -0.00007   0.00000  -0.00490   0.00052  -0.00023
 120        2PX        -0.00003   0.00001   0.00875  -0.00150  -0.00142
 121        2PY         0.00080   0.00001   0.11638   0.00036  -0.00335
 122        2PZ        -0.00082  -0.00002  -0.16210  -0.00065   0.00895
 123        3S         -0.00038  -0.00001  -0.01515   0.00094  -0.00222
 124        3PX         0.00002   0.00001   0.00599  -0.00303  -0.00079
 125        3PY         0.00036   0.00000   0.05191  -0.00016  -0.00048
 126        3PZ        -0.00050  -0.00001  -0.07948  -0.00059   0.00448
 127 29  H  1S          0.00061   0.00001   0.10246   0.00087  -0.00423
 128        2S          0.00056   0.00001   0.06319  -0.00113  -0.00072
 129 30  H  1S         -0.00045  -0.00001  -0.09913   0.00018   0.00581
 130        2S         -0.00006   0.00000  -0.03928  -0.00161   0.00230
                          31        32        33        34        35
                           O         O         O         O         O
     Eigenvalues --    -0.32271  -0.31205  -0.30846  -0.30742  -0.30623
   1 1   H  1S         -0.00544   0.00474  -0.00071  -0.00013  -0.12937
   2        2S          0.01836   0.00066  -0.00088  -0.00011  -0.10375
   3 2   H  1S         -0.00480   0.00248  -0.00074  -0.00017  -0.12712
   4        2S         -0.01457   0.01683  -0.00063   0.00005  -0.10252
   5 3   O  1S         -0.00392   0.00269  -0.00047  -0.00008  -0.08085
   6        2S          0.01190  -0.00450   0.00101   0.00019   0.17637
   7        2PX         0.00833  -0.00150   0.00018  -0.00005   0.02637
   8        2PY         0.01867  -0.01214   0.00263   0.00056   0.46184
   9        2PZ         0.00087   0.00454  -0.00055  -0.00012  -0.10746
  10        3S          0.00579  -0.01702   0.00210   0.00028   0.33444
  11        3PX         0.01263  -0.00230   0.00013  -0.00007   0.01479
  12        3PY         0.01496  -0.00491   0.00178   0.00043   0.31832
  13        3PZ        -0.00847   0.00662  -0.00032  -0.00007  -0.07486
  14 4   O  1S         -0.00196  -0.00004   0.09829   0.00612  -0.00047
  15        2S          0.00346   0.00008  -0.21431  -0.01345   0.00111
  16        2PX        -0.00752  -0.00018   0.47042   0.02917  -0.00235
  17        2PY        -0.00143  -0.00005   0.09092   0.00638  -0.00042
  18        2PZ        -0.00345  -0.00008   0.22207   0.01228  -0.00109
  19        3S          0.01186   0.00022  -0.41069  -0.02572   0.00163
  20        3PX        -0.00368  -0.00009   0.30754   0.01916  -0.00164
  21        3PY        -0.00086  -0.00006   0.05867   0.00391  -0.00034
  22        3PZ        -0.00162  -0.00005   0.14427   0.00712  -0.00083
  23 5   H  1S         -0.00250  -0.00005   0.15176   0.00894  -0.00076
  24        2S         -0.00602  -0.00014   0.11515   0.00761  -0.00044
  25 6   H  1S         -0.00252  -0.00007   0.15490   0.00966  -0.00080
  26        2S         -0.00600  -0.00005   0.14313   0.00957  -0.00011
  27 7   O  1S          0.00001  -0.00031  -0.00580   0.09624  -0.00029
  28        2S         -0.00001   0.00073   0.01254  -0.21113   0.00061
  29        2PX        -0.00007  -0.00045  -0.01314   0.21249  -0.00067
  30        2PY         0.00002  -0.00134  -0.02493   0.42413  -0.00126
  31        2PZ        -0.00004   0.00067   0.01396  -0.22678   0.00070
  32        3S         -0.00004   0.00117   0.02451  -0.39721   0.00122
  33        3PX         0.00000  -0.00036  -0.00876   0.13611  -0.00043
  34        3PY        -0.00003  -0.00090  -0.01628   0.28454  -0.00083
  35        3PZ        -0.00003   0.00047   0.00933  -0.15132   0.00047
  36 8   H  1S         -0.00001  -0.00049  -0.00933   0.15044  -0.00046
  37        2S         -0.00004  -0.00011  -0.00767   0.13853  -0.00041
  38 9   H  1S          0.00005  -0.00052  -0.00883   0.14981  -0.00043
  39        2S          0.00006  -0.00047  -0.00794   0.10756  -0.00037
  40 10  O  1S         -0.00034   0.00348  -0.00005   0.00106   0.00680
  41        2S          0.00068  -0.00627   0.00011  -0.00224  -0.01429
  42        2PX         0.00017   0.00629   0.00000   0.00020   0.00221
[...]
    18  O    0.000000   0.000000   0.000000   0.000000   0.000000   0.000000
    19  H    0.000809   0.001528  -0.000049   0.000000   0.000000   0.000000
    20  H    0.000002  -0.000024   0.000000   0.000000   0.000000   0.000000
    21  O   -0.000141   0.000983   0.000001   0.000000   0.000000   0.000000
    22  O    0.000000   0.000000   0.000000  -0.000252  -0.000002   0.003112
    23  H    0.000000   0.000000   0.000000   0.000067  -0.000001  -0.000077
    24  H    0.000000  -0.000003   0.000000   0.000482  -0.000002   0.000212
    25  O    0.000000   0.000000   0.000000   0.000000   0.000002   0.000000
    26  H    0.000000   0.000000   0.000000   0.000007   0.000116   0.000035
    27  H    0.000000   0.000000   0.000000   0.000000   0.000000   0.000000
    28  O    0.000000   0.000000   0.000000   0.000000   0.000001   0.000000
    29  H    0.000000   0.000000   0.000000   0.000000   0.000000   0.000000
    30  H    0.000000   0.000000   0.000000   0.000000   0.000000   0.000000
             13         14         15         16         17         18
     1  H    0.000000   0.000000   0.000000   0.000167  -0.000440   0.019389
     2  H    0.000000   0.000000   0.000000   0.000271   0.000006  -0.000029
     3  O    0.000000   0.000000   0.000000   0.000868   0.000366  -0.001651
     4  O   -0.000007   0.000000   0.000233   0.000000   0.000002   0.000000
     5  H    0.000001   0.000000   0.000008   0.000013   0.000008   0.000005
     6  H    0.000000   0.000000  -0.000005   0.000002   0.000025   0.000002
     7  O   -0.000118   0.000003   0.000546   0.000000   0.000000   0.000000
     8  H   -0.000023   0.000002   0.000356   0.000000   0.000000   0.000000
     9  H    0.002373  -0.000117   0.001864   0.000000   0.000000   0.000000
    10  O    0.000000   0.000000   0.000001   0.000000   0.000000   0.000000
    11  H    0.000001   0.000011   0.000009   0.000000   0.000000   0.000000
    12  H    0.000000   0.000000   0.000000   0.000001   0.000000   0.000000
    13  O    8.231431   0.206730   0.203183   0.000000   0.000000   0.000000
    14  H    0.206730   0.493834  -0.028941   0.000000   0.000000   0.000000
    15  H    0.203183  -0.028941   0.506197   0.000000   0.000000   0.000000
    16  H    0.000000   0.000000   0.000000   0.479773  -0.031897   0.217369
    17  H    0.000000   0.000000   0.000000  -0.031897   0.466635   0.217924
    18  O    0.000000   0.000000   0.000000   0.217369   0.217924   8.202196
    19  H    0.000000   0.000000   0.000000  -0.000016   0.000000   0.000000
    20  H    0.000000   0.000000   0.000000  -0.000033   0.000000   0.000002
    21  O    0.000000   0.000000   0.000000   0.000515  -0.000001  -0.000007
    22  O    0.000000   0.000000   0.000000   0.000000   0.000000   0.000000
    23  H    0.000000   0.000000   0.000000   0.000000   0.000000   0.000000
    24  H    0.000000   0.000000   0.000000   0.000012   0.000000   0.000000
    25  O    0.000000   0.000000   0.000000  -0.000006   0.000970  -0.000025
    26  H    0.000000   0.000000   0.000000   0.000035   0.000284   0.000035
    27  H    0.000000   0.000000   0.000000   0.000000  -0.000017   0.000001
    28  O   -0.000083   0.000680   0.001955   0.000000   0.000000   0.000000
    29  H    0.000401  -0.000024  -0.000108   0.000000   0.000000   0.000000
    30  H    0.000094  -0.000023  -0.000055   0.000000   0.000000   0.000000
             19         20         21         22         23         24
     1  H    0.000000   0.000000   0.000000  -0.000001   0.000000   0.000002
     2  H    0.000000   0.000000   0.000000   0.000315  -0.000009   0.000045
     3  O    0.000000   0.000000   0.000000  -0.000004   0.000000   0.000008
     4  O    0.000000   0.000000   0.000000   0.000000   0.000000   0.000000
     5  H   -0.000001  -0.000002   0.000056   0.000000   0.000000   0.000000
     6  H    0.000000   0.000000   0.000000   0.000000   0.000000   0.000000
     7  O    0.000809   0.000002  -0.000141   0.000000   0.000000   0.000000
     8  H    0.001528  -0.000024   0.000983   0.000000   0.000000  -0.000003
     9  H   -0.000049   0.000000   0.000001   0.000000   0.000000   0.000000
    10  O    0.000000   0.000000   0.000000  -0.000252   0.000067   0.000482
    11  H    0.000000   0.000000   0.000000  -0.000002  -0.000001  -0.000002
    12  H    0.000000   0.000000   0.000000   0.003112  -0.000077   0.000212
    13  O    0.000000   0.000000   0.000000   0.000000   0.000000   0.000000
    14  H    0.000000   0.000000   0.000000   0.000000   0.000000   0.000000
    15  H    0.000000   0.000000   0.000000   0.000000   0.000000   0.000000
    16  H   -0.000016  -0.000033   0.000515   0.000000   0.000000   0.000012
    17  H    0.000000   0.000000  -0.000001   0.000000   0.000000   0.000000
    18  O    0.000000   0.000002  -0.000007   0.000000   0.000000   0.000000
    19  H    0.431355  -0.029951   0.241416   0.000029   0.000008   0.000088
    20  H   -0.029951   0.412060   0.250231   0.000001   0.000000  -0.000025
    21  O    0.241416   0.250231   8.224858  -0.000024  -0.000003   0.001108
    22  O    0.000029   0.000001  -0.000024   8.242159   0.211965   0.203590
    23  H    0.000008   0.000000  -0.000003   0.211965   0.471484  -0.025184
    24  H    0.000088  -0.000025   0.001108   0.203590  -0.025184   0.497138
    25  O    0.000000   0.000000   0.000000   0.000000   0.000000   0.000000
    26  H    0.000000   0.000000   0.000000   0.000000   0.000000   0.000000
    27  H    0.000000   0.000000   0.000000   0.000000   0.000000   0.000000
    28  O    0.000000   0.000000   0.000000   0.000000   0.000000   0.000000
    29  H    0.000000   0.000000   0.000000   0.000000   0.000000   0.000000
    30  H    0.000000   0.000000   0.000000   0.000000   0.000000   0.000000
             25         26         27         28         29         30
     1  H    0.000064   0.000016   0.000001   0.000000   0.000000   0.000000
     2  H    0.000005  -0.000024  -0.000007   0.000000   0.000000   0.000000
     3  O   -0.000115   0.001782   0.000282   0.000000   0.000000   0.000000
     4  O    0.000000   0.000000   0.000000  -0.000526   0.000039   0.004947
     5  H    0.000000   0.000000   0.000000   0.000060   0.000000  -0.000292
     6  H    0.000000   0.000001   0.000000   0.001513  -0.000085   0.000478
     7  O    0.000000   0.000000   0.000000   0.000000   0.000000   0.000000
     8  H    0.000000   0.000000   0.000000   0.000000   0.000000   0.000000
     9  H    0.000000   0.000000   0.000000   0.000000   0.000000   0.000000
    10  O    0.000000   0.000007   0.000000   0.000000   0.000000   0.000000
    11  H    0.000002   0.000116   0.000000   0.000001   0.000000   0.000000
    12  H    0.000000   0.000035   0.000000   0.000000   0.000000   0.000000
    13  O    0.000000   0.000000   0.000000  -0.000083   0.000401   0.000094
    14  H    0.000000   0.000000   0.000000   0.000680  -0.000024  -0.000023
    15  H    0.000000   0.000000   0.000000   0.001955  -0.000108  -0.000055
    16  H   -0.000006   0.000035   0.000000   0.000000   0.000000   0.000000
    17  H    0.000970   0.000284  -0.000017   0.000000   0.000000   0.000000
    18  O   -0.000025   0.000035   0.000001   0.000000   0.000000   0.000000
    19  H    0.000000   0.000000   0.000000   0.000000   0.000000   0.000000
    20  H    0.000000   0.000000   0.000000   0.000000   0.000000   0.000000
    21  O    0.000000   0.000000   0.000000   0.000000   0.000000   0.000000
    22  O    0.000000   0.000000   0.000000   0.000000   0.000000   0.000000
    23  H    0.000000   0.000000   0.000000   0.000000   0.000000   0.000000
    24  H    0.000000   0.000000   0.000000   0.000000   0.000000   0.000000
    25  O    8.242360   0.205387   0.214844  -0.000005   0.000014   0.000010
    26  H    0.205387   0.496647  -0.028502   0.000234  -0.000011  -0.000011
    27  H    0.214844  -0.028502   0.476304   0.000001   0.000000   0.000000
    28  O   -0.000005   0.000234   0.000001   8.251101   0.226982   0.219725
    29  H    0.000014  -0.000011   0.000000   0.226982   0.446207  -0.023909
    30  H    0.000010  -0.000011   0.000000   0.219725  -0.023909   0.450108
 Mulliken atomic charges:
              1
     1  H    0.334145
     2  H    0.339845
     3  O   -0.696958
     4  O   -0.647291
     5  H    0.337926
     6  H    0.315223
     7  O   -0.658847
     8  H    0.311109
     9  H    0.345769
    10  O   -0.678210
    11  H    0.335255
    12  H    0.337303
    13  O   -0.643983
    14  H    0.327847
    15  H    0.314757
    16  H    0.332926
    17  H    0.346135
    18  O   -0.655213
    19  H    0.354783
    20  H    0.367738
    21  O   -0.718991
    22  O   -0.660888
    23  H    0.341750
    24  H    0.322529
    25  O   -0.663505
    26  H    0.323968
    27  H    0.337092
    28  O   -0.701637
    29  H    0.350495
    30  H    0.348928
 Sum of Mulliken atomic charges =   0.00000
 Mulliken charges with hydrogens summed into heavy atoms:
              1
     3  O   -0.022968
     4  O    0.005858
     7  O   -0.001969
    10  O   -0.005652
    13  O   -0.001380
    18  O    0.023848
    21  O    0.003529
    22  O    0.003391
    25  O   -0.002445
    28  O   -0.002214
 Sum of Mulliken charges with hydrogens summed into heavy atoms =   0.00000
 Electronic spatial extent (au):  <R**2>=           6317.5534
 Charge=              0.0000 electrons
 Dipole moment (field-independent basis, Debye):
    X=              2.3039    Y=             -0.2055    Z=             -0.4766  Tot=              2.3617
 Quadrupole moment (field-independent basis, Debye-Ang):
   XX=           -103.3891   YY=            -55.5415   ZZ=            -75.2784
   XY=            -22.7764   XZ=             -6.0974   YZ=             -2.2335
 Traceless Quadrupole moment (field-independent basis, Debye-Ang):
   XX=            -25.3194   YY=             22.5282   ZZ=              2.7913
   XY=            -22.7764   XZ=             -6.0974   YZ=             -2.2335
 Octapole moment (field-independent basis, Debye-Ang**2):
  XXX=              7.8346  YYY=            -23.5200  ZZZ=            -18.5973  XYY=             35.6394
  XXY=             69.7639  XXZ=             28.2398  XZZ=            -29.5644  YZZ=            -19.4720
  YYZ=             -6.3494  XYZ=             14.6817
 Hexadecapole moment (field-independent basis, Debye-Ang**3):
 XXXX=          -3889.5133 YYYY=          -2018.3520 ZZZZ=          -2004.9176 XXXY=           -363.3497
 XXXZ=           -210.4141 YYYX=           -373.1589 YYYZ=           -387.3503 ZZZX=           -195.0775
 ZZZY=           -128.8471 XXYY=           -915.0245 XXZZ=           -891.8177 YYZZ=           -559.0823
 XXYZ=            -70.6425 YYXZ=            -57.9675 ZZXY=           -156.3000
 N-N= 5.163495086797D+02 E-N=-2.837985314029D+03  KE= 7.589971329159D+02
 Orbital energies and kinetic energies (alpha):
                                 1                 2
   1         O               -18.817556         29.113015
   2         O               -18.815379         29.114966
   3         O               -18.801857         29.114479
   4         O               -18.800948         29.111655
   5         O               -18.800192         29.112691
   6         O               -18.798557         29.112644
   7         O               -18.795003         29.112399
   8         O               -18.794873         29.114497
   9         O               -18.794253         29.112536
  10         O               -18.786399         29.113255
  11         O                -0.929857          2.589315
  12         O                -0.927628          2.601642
  13         O                -0.918692          2.585860
  14         O                -0.918481          2.574389
  15         O                -0.916678          2.577639
  16         O                -0.914820          2.589757
  17         O                -0.896965          2.606482
  18         O                -0.892482          2.597282
  19         O                -0.890343          2.602331
  20         O                -0.885545          2.594626
  21         O                -0.510726          1.748528
  22         O                -0.475122          1.751038
  23         O                -0.473922          1.742317
  24         O                -0.470795          1.674257
  25         O                -0.469021          1.749634
  26         O                -0.459091          1.754631
  27         O                -0.455622          1.684770
  28         O                -0.453048          1.794663
  29         O                -0.445287          1.702360
  30         O                -0.433185          1.706401
  31         O                -0.322705          2.219342
  32         O                -0.312054          2.165362
  33         O                -0.308457          2.227939
  34         O                -0.307422          2.220818
  35         O                -0.306227          2.190157
  36         O                -0.305919          2.220735
  37         O                -0.303348          2.195921
  38         O                -0.300155          2.172264
  39         O                -0.297822          2.236397
  40         O                -0.280940          2.204305
  41         O                -0.253559          2.290619
  42         O                -0.248024          2.294388
  43         O                -0.239834          2.300166
  44         O                -0.237878          2.311116
  45         O                -0.237672          2.309765
  46         O                -0.231069          2.311405
  47         O                -0.230578          2.308731
  48         O                -0.228890          2.313730
  49         O                -0.224065          2.282769
  50         O                -0.215889          2.362581
  51         V                -0.041100          1.158920
  52         V                -0.027018          1.195719
  53         V                -0.023233          1.251042
  54         V                -0.012363          1.280857
  55         V                -0.004406          1.281444
  56         V                 0.004989          1.357763
  57         V                 0.014820          1.369391
  58         V                 0.032506          1.361537
  59         V                 0.034634          1.354794
  60         V                 0.045222          1.414012
  61         V                 0.063495          1.511955
  62         V                 0.074178          1.465639
  63         V                 0.078171          1.450219
  64         V                 0.089838          1.454486
  65         V                 0.092021          1.437666
  66         V                 0.096079          1.516463
  67         V                 0.108550          1.531373
  68         V                 0.120516          1.574736
  69         V                 0.133988          1.517367
  70         V                 0.137835          1.572858
  71         V                 0.660819          2.702890
  72         V                 0.688073          2.893533
  73         V                 0.690343          2.538127
  74         V                 0.693740          2.381370
  75         V                 0.701258          2.759891
  76         V                 0.708264          2.406399
  77         V                 0.709120          2.425548
  78         V                 0.711118          2.505224
  79         V                 0.715772          2.699647
  80         V                 0.729108          2.854905
  81         V                 0.734008          2.726995
  82         V                 0.752433          2.947824
  83         V                 0.758059          2.802261
  84         V                 0.765146          3.013459
  85         V                 0.775212          3.036052
  86         V                 0.779846          3.103760
  87         V                 0.784859          3.173253
  88         V                 0.789121          2.881397
  89         V                 0.801330          3.337885
  90         V                 0.813919          3.318914
  91         V                 0.819935          3.448391
  92         V                 0.822188          3.404220
  93         V                 0.824767          3.365441
  94         V                 0.829681          3.180770
  95         V                 0.833840          3.394006
  96         V                 0.844835          3.183913
  97         V                 0.849683          3.210403
  98         V                 0.853308          3.299178
  99         V                 0.862347          3.290088
 100         V                 0.863091          3.198542
 101         V                 0.872397          3.417912
 102         V                 0.879528          3.050932
 103         V                 0.886571          3.022288
 104         V                 0.891782          3.034578
 105         V                 0.901955          3.249001
 106         V                 0.908806          3.089651
 107         V                 0.916561          2.901936
 108         V                 0.922297          2.879262
 109         V                 0.926351          2.961126
 110         V                 0.951468          3.291579
 111         V                 0.982413          3.504754
 112         V                 0.984508          3.515018
 113         V                 0.985252          3.428243
 114         V                 0.990274          3.403346
 115         V                 1.000780          3.496386
 116         V                 1.004993          3.506946
 117         V                 1.008604          3.424900
 118         V                 1.033373          3.263636
 119         V                 1.037786          3.503270
 120         V                 1.038394          3.565873
 121         V                 1.315167          3.734172
 122         V                 1.321943          3.617045
 123         V                 1.328494          3.700485
 124         V                 1.345572          3.730734
 125         V                 1.352642          3.680439
 126         V                 1.368815          3.698934
 127         V                 1.374130          3.671814
 128         V                 1.392590          3.621597
 129         V                 1.411011          3.713246
 130         V                 1.429674          3.746025
 Total kinetic energy from orbitals= 7.589971329159D+02
 1\1\GINC-ELGATO-LOGIN\SP\RBLYP\6-31G\H20O10\RUBENSANTAMARIA\29-May-201
 6\0\\# p blyp/6-31g fchk=all nosymm pop=full\\create esp of adenine by
  running cubegen 0 potential Test.FChk rso.cube -2 h\\0,1\H,0,3.5264,1
 .3169,2.0702\H,0,4.0834,0.9641,0.6297\O,0,3.8636,1.7325,1.2219\O,0,-3.
 3876,-0.5411,1.8412\H,0,-2.6335,-1.1238,1.9816\H,0,-3.0005,0.3102,2.25
 15\O,0,-2.4756,-3.6054,-1.4858\H,0,-1.5039,-3.3713,-1.6159\H,0,-2.8997
 ,-2.8278,-1.9047\O,0,1.8163,1.1182,-2.9825\H,0,1.1361,1.7429,-2.5955\H
 ,0,2.5,1.0085,-2.2742\O,0,-3.5546,0.2186,-2.6402\H,0,-3.0736,0.9799,-3
 .1329\H,0,-2.7455,-0.1699,-2.0558\H,0,1.5333,-0.3667,2.6352\H,0,0.9467
 ,0.946,3.2603\O,0,1.5219,0.2004,3.509\H,0,0.5267,-3.9204,-0.0281\H,0,0
 .8931,-4.271,1.5469\O,0,0.7075,-3.5974,0.87\O,0,3.9231,-1.9452,-1.7988
 \H,0,3.7142,-2.3919,-2.7306\H,0,2.9732,-1.8885,-1.3047\O,0,0.5178,4.06
 49,1.4045\H,0,0.7704,3.2558,0.8152\H,0,1.4337,4.5996,1.4675\O,0,-3.018
 5,2.3447,0.0838\H,0,-3.376,3.1909,-0.3773\H,0,-3.4331,2.17,0.9813\\Ver
 sion=EM64L-G09RevA.01\HF=-763.6565615\RMSD=4.006e-09\Dipole=0.9064436,
 -0.0808528,-0.1875198\Quadrupole=-18.8243801,16.7491318,2.0752483,-16.
 9336682,-4.5332398,-1.6605296\PG=C01 [X(H20O10)]\\@


 THERE'S SMALL CHOICE IN A BOWL OF ROTTEN APPLES.
                     SHAKESPEARE
 Job cpu time:  0 days  0 hours  0 minutes 25.1 seconds.
 File lengths (MBytes):  RWF=     28 Int=      0 D2E=      0 Chk=      2 Scr=      1
 Normal termination of Gaussian 09 at Sun May 29 00:13:20 2016.

