 Entering Gaussian System, Link 0=g09
 Input=g09.inp
 Output=g09.log
 Initial command:
 /home/toshibac655/g09/l1.exe /home/toshibac655/Gaussian_Scratch/Gau-4901.inp -scrdir=/home/toshibac655/Gaussian_Scratch/
 Entering Link 1 = /home/toshibac655/g09/l1.exe PID=      4903.
  
 Copyright (c) 1988,1990,1992,1993,1995,1998,2003,2009, Gaussian, Inc.
                  All Rights Reserved.
  
 This is part of the Gaussian(R) 09 program.  It is based on
 the Gaussian(R) 03 system (copyright 2003, Gaussian, Inc.),
 the Gaussian(R) 98 system (copyright 1998, Gaussian, Inc.),
 the Gaussian(R) 94 system (copyright 1995, Gaussian, Inc.),
 the Gaussian 92(TM) system (copyright 1992, Gaussian, Inc.),
 the Gaussian 90(TM) system (copyright 1990, Gaussian, Inc.),
 the Gaussian 88(TM) system (copyright 1988, Gaussian, Inc.),
 the Gaussian 86(TM) system (copyright 1986, Carnegie Mellon
 University), and the Gaussian 82(TM) system (copyright 1983,
 Carnegie Mellon University). Gaussian is a federally registered
 trademark of Gaussian, Inc.
  
 This software contains proprietary and confidential information,
 including trade secrets, belonging to Gaussian, Inc.
  
 This software is provided under written license and may be
 used, copied, transmitted, or stored only in accord with that
 written license.
  
 The following legend is applicable only to US Government
 contracts under FAR:
  
                    RESTRICTED RIGHTS LEGEND
  
 Use, reproduction and disclosure by the US Government is
 subject to restrictions as set forth in subparagraphs (a)
 and (c) of the Commercial Computer Software - Restricted
 Rights clause in FAR 52.227-19.
  
 Gaussian, Inc.
 340 Quinnipiac St., Bldg. 40, Wallingford CT 06492
  
  
 ---------------------------------------------------------------
 Warning -- This program may not be used in any manner that
 competes with the business of Gaussian, Inc. or will provide
 assistance to any competitor of Gaussian, Inc.  The licensee
 of this program is prohibited from giving any competitor of
 Gaussian, Inc. access to this program.  By using this program,
 the user acknowledges that Gaussian, Inc. is engaged in the
 business of creating and licensing software in the field of
 computational chemistry and represents and warrants to the
 licensee that it is not a competitor of Gaussian, Inc. and that
 it will not use this program in any manner prohibited above.
 ---------------------------------------------------------------
  

 Cite this work as:
 Gaussian 09, Revision A.01,
 M. J. Frisch, G. W. Trucks, H. B. Schlegel, G. E. Scuseria, 
 M. A. Robb, J. R. Cheeseman, G. Scalmani, V. Barone, B. Mennucci, 
 G. A. Petersson, H. Nakatsuji, M. Caricato, X. Li, H. P. Hratchian, 
 A. F. Izmaylov, J. Bloino, G. Zheng, J. L. Sonnenberg, M. Hada, 
 M. Ehara, K. Toyota, R. Fukuda, J. Hasegawa, M. Ishida, T. Nakajima, 
 Y. Honda, O. Kitao, H. Nakai, T. Vreven, J. A. Montgomery, Jr., 
 J. E. Peralta, F. Ogliaro, M. Bearpark, J. J. Heyd, E. Brothers, 
 K. N. Kudin, V. N. Staroverov, R. Kobayashi, J. Normand, 
 K. Raghavachari, A. Rendell, J. C. Burant, S. S. Iyengar, J. Tomasi, 
 M. Cossi, N. Rega, J. M. Millam, M. Klene, J. E. Knox, J. B. Cross, 
 V. Bakken, C. Adamo, J. Jaramillo, R. Gomperts, R. E. Stratmann, 
 O. Yazyev, A. J. Austin, R. Cammi, C. Pomelli, J. W. Ochterski, 
 R. L. Martin, K. Morokuma, V. G. Zakrzewski, G. A. Voth, 
 P. Salvador, J. J. Dannenberg, S. Dapprich, A. D. Daniels, 
 O. Farkas, J. B. Foresman, J. V. Ortiz, J. Cioslowski, 
 and D. J. Fox, Gaussian, Inc., Wallingford CT, 2009.
 
 ******************************************
 Gaussian 09:  EM64L-G09RevA.01  8-May-2009
                23-Jun-2016 
 ******************************************
 ---------------------------------------
 # p blyp/6-31g fchk=all nosymm pop=full
 ---------------------------------------
 1/38=1/1;
 2/12=2,15=1,17=6,18=5,40=1/2;
 3/5=1,6=6,11=2,16=1,25=1,30=1,74=402/1,2,3;
 4//1;
 5/5=2,38=5/2;
 6/7=3,28=1/1;
 99/5=1,9=1/99;
 ----------------------------------------------------------------------
 create esp of adenine by running cubegen 0 potential Test.FChk rso.cub
 e -2 h
 ----------------------------------------------------------------------
 Symbolic Z-matrix:
 Charge =  0 Multiplicity = 1
 H                     3.5264    1.3169    2.0702 
 H                     4.0834    0.9641    0.6297 
 O                     3.8636    1.7325    1.2219 
 
                          Input orientation:                          
 ---------------------------------------------------------------------
 Center     Atomic      Atomic             Coordinates (Angstroms)
 Number     Number       Type             X           Y           Z
 ---------------------------------------------------------------------
      1          1           0        3.526400    1.316900    2.070200
      2          1           0        4.083400    0.964100    0.629700
      3          8           0        3.863600    1.732500    1.221900
 ---------------------------------------------------------------------
                    Distance matrix (angstroms):
                    1          2          3
     1  H    0.000000
     2  H    1.584221   0.000000
     3  O    1.003015   0.994712   0.000000
 Symmetry turned off by external request.
 Stoichiometry    H2O
 Framework group  CS[SG(H2O)]
 Deg. of freedom     3
 Full point group                 CS      NOp   2
 Rotational constants (GHZ):    762.5242941    399.5719169    262.1842245
 Standard basis: 6-31G (6D, 7F)
 Integral buffers will be    131072 words long.
 Raffenetti 2 integral format.
 Two-electron integral symmetry is turned off.
    13 basis functions,    30 primitive gaussians,    13 cartesian basis functions
     5 alpha electrons        5 beta electrons
       nuclear repulsion energy         8.8106441543 Hartrees.
 NAtoms=    3 NActive=    3 NUniq=    3 SFac= 7.50D-01 NAtFMM=   80 NAOKFM=F Big=F
 One-electron integrals computed using PRISM.
 NBasis=    13 RedAO= T  NBF=    13
 NBsUse=    13 1.00D-06 NBFU=    13
 Harris functional with IExCor=  402 diagonalized for initial guess.
 ExpMin= 1.61D-01 ExpMax= 5.48D+03 ExpMxC= 8.25D+02 IAcc=1 IRadAn=         1 AccDes= 0.00D+00
 HarFok:  IExCor=  402 AccDes= 0.00D+00 IRadAn=         1 IDoV= 1
 ScaDFX=  1.000000  1.000000  1.000000  1.000000
 FoFCou: FMM=F IPFlag=           0 FMFlag=      100000 FMFlg1=           0
         NFxFlg=           0 DoJE=T BraDBF=F KetDBF=T FulRan=T
         Omega=  0.000000  0.000000  1.000000  0.000000  0.000000 ICntrl=     500 IOpCl=  0
         NMat0=    1 NMatS0=    1 NMatT0=    0 NMatD0=    1 NMtDS0=    0 NMtDT0=    0
         I1Cent=           4 NGrid=           0.
 Symmetry not used in FoFCou.
 Requested convergence on RMS density matrix=1.00D-08 within 128 cycles.
 Requested convergence on MAX density matrix=1.00D-06.
 Requested convergence on             energy=1.00D-06.
 No special actions if energy rises.
 Keep J ints in memory in canonical form, NReq=905990.
 Integral accuracy reduced to 1.0D-05 until final iterations.
 Initial convergence to 1.0D-05 achieved.  Increase integral accuracy.
 SCF Done:  E(RB-LYP) =  -76.3664835444     A.U. after   10 cycles
             Convg  =    0.6960D-08             -V/T =  2.0055

 **********************************************************************

            Population analysis using the SCF density.

 **********************************************************************

 Alpha  occ. eigenvalues --  -18.78447  -0.90156  -0.45676  -0.28988  -0.22143
 Alpha virt. eigenvalues --    0.01955   0.10427   0.74631   0.77638   0.83600
 Alpha virt. eigenvalues --    0.90242   1.00508   1.36262
     Molecular Orbital Coefficients:
                           1         2         3         4         5
                           O         O         O         O         O
     Eigenvalues --   -18.78447  -0.90156  -0.45676  -0.28988  -0.22143
   1 1   H  1S          0.00024   0.14339   0.26264  -0.14626   0.00000
   2        2S          0.00308   0.00500   0.16558  -0.12563   0.00000
   3 2   H  1S          0.00021   0.14700  -0.26307  -0.14584   0.00000
   4        2S          0.00316   0.00495  -0.16442  -0.12398   0.00000
   5 3   O  1S          0.99492  -0.20923  -0.00088  -0.09357   0.00000
   6        2S          0.02894   0.46498   0.00161   0.20475   0.00000
   7        2PX        -0.00020  -0.01397  -0.18026   0.05089   0.60343
   8        2PY        -0.00209  -0.15243   0.11646   0.52415  -0.00889
   9        2PZ         0.00043   0.03004   0.46626  -0.11061   0.23551
  10        3S         -0.01394   0.45343   0.00453   0.38972   0.00000
  11        3PX         0.00026  -0.00688  -0.08171   0.03470   0.46880
  12        3PY         0.00276  -0.07173   0.05182   0.35567  -0.00691
  13        3PZ        -0.00056   0.01492   0.21132  -0.07547   0.18296
                           6         7         8         9        10
                           V         V         V         V         V
     Eigenvalues --     0.01955   0.10427   0.74631   0.77638   0.83600
   1 1   H  1S         -0.12527  -0.12455   1.02784   0.68149   0.00001
   2        2S         -0.89951  -1.15439  -0.90196  -0.58596   0.00000
   3 2   H  1S         -0.11856   0.12447  -0.86981   0.87944   0.00001
   4        2S         -0.87236   1.19511   0.75555  -0.73717  -0.00001
   5 3   O  1S         -0.08733   0.00164   0.00356   0.03703   0.00000
   6        2S          0.16450  -0.00280  -0.02492  -0.22301   0.00000
   7        2PX        -0.03397  -0.15886   0.09810   0.05332  -0.89168
   8        2PY        -0.31456   0.10618   0.00075   0.64468   0.01315
   9        2PZ         0.07515   0.41104  -0.25133  -0.11225  -0.34800
  10        3S          1.00015  -0.02641   0.04830   0.35640   0.00000
  11        3PX        -0.04582  -0.25132   0.09205  -0.04893   0.96925
  12        3PY        -0.42871   0.16939  -0.09875  -0.34174  -0.01429
  13        3PZ         0.10121   0.65034  -0.23959   0.11245   0.37828
                          11        12        13
                           V         V         V
     Eigenvalues --     0.90242   1.00508   1.36262
   1 1   H  1S          0.54150  -0.14220  -0.46499
   2        2S         -0.14199  -0.79205  -0.56579
   3 2   H  1S          0.55298   0.12179  -0.46350
   4        2S         -0.12403   0.81027  -0.58545
   5 3   O  1S          0.07173  -0.00079   0.05680
   6        2S         -0.46847   0.00805  -1.65113
   7        2PX        -0.06291   0.33439   0.01949
   8        2PY        -0.67696  -0.21029   0.19513
   9        2PZ         0.13563  -0.86473  -0.04256
  10        3S          0.16626  -0.01436   2.64461
  11        3PX         0.09919  -0.59540  -0.07836
  12        3PY         1.11152   0.37386  -0.82992
  13        3PZ        -0.21219   1.53970   0.16943
     Density Matrix:
                           1         2         3         4         5
   1 1   H  1S          0.22186
   2        2S          0.12516   0.08647
   3 2   H  1S         -0.05337  -0.04900   0.22417
   4        2S         -0.04867  -0.02323   0.12413   0.08488
   5 3   O  1S         -0.03262   0.02726  -0.03333   0.02771   2.08482
   6        2S          0.07432  -0.04608   0.07614  -0.04651  -0.17530
   7        2PX        -0.11358  -0.07262   0.07589   0.04652  -0.00375
   8        2PY        -0.13587  -0.09467  -0.25897  -0.16979  -0.03867
   9        2PZ         0.28588   0.18250  -0.20423  -0.12559   0.00816
  10        3S          0.01842  -0.09197   0.01724  -0.09372  -0.29043
  11        3PX        -0.05504  -0.03584   0.03085   0.01820  -0.00295
  12        3PY        -0.09739  -0.07290  -0.15209  -0.10593  -0.03114
  13        3PZ         0.13736   0.08909  -0.08478  -0.05063   0.00639
                           6         7         8         9        10
   6        2S          0.51793
   7        2PX         0.00725   0.79882
   8        2PY         0.07314   0.00490   0.62324
   9        2PZ        -0.01583   0.10404  -0.02070   0.57200
  10        3S          0.58047   0.02537   0.27142  -0.05475   0.71539
  11        3PX         0.00756   0.59896   0.01110   0.13653   0.02006
  12        3PY         0.07927   0.01119   0.40690  -0.03792   0.21257
  13        3PZ        -0.01638   0.13653  -0.03770   0.30083  -0.04336
                          11        12        13
  11        3PX         0.45540
  12        3PY         0.01073   0.26878
  13        3PZ         0.13157  -0.03646   0.16810
    Full Mulliken population analysis:
                           1         2         3         4         5
   1 1   H  1S          0.22186
   2        2S          0.08239   0.08647
   3 2   H  1S         -0.00214  -0.00995   0.22417
   4        2S         -0.00988  -0.01128   0.08171   0.08488
   5 3   O  1S         -0.00094   0.00179  -0.00100   0.00184   2.08482
   6        2S          0.01625  -0.01678   0.01705  -0.01707  -0.04097
   7        2PX         0.00996   0.00361   0.00446   0.00152   0.00000
   8        2PY         0.01469   0.00581   0.05316   0.01941   0.00000
   9        2PZ         0.06307   0.02285   0.03231   0.01107   0.00000
  10        3S          0.00740  -0.06091   0.00701  -0.06245  -0.04858
  11        3PX         0.01063   0.00588   0.00393   0.00196   0.00000
  12        3PY         0.02318   0.01474   0.06770   0.03983   0.00000
  13        3PZ         0.06672   0.03676   0.02909   0.01467   0.00000
                           6         7         8         9        10
   6        2S          0.51793
   7        2PX         0.00000   0.79882
   8        2PY         0.00000   0.00000   0.62324
   9        2PZ         0.00000   0.00000   0.00000   0.57200
  10        3S          0.44327   0.00000   0.00000   0.00000   0.71539
  11        3PX         0.00000   0.30039   0.00000   0.00000   0.00000
  12        3PY         0.00000   0.00000   0.20407   0.00000   0.00000
  13        3PZ         0.00000   0.00000   0.00000   0.15087   0.00000
                          11        12        13
  11        3PX         0.45540
  12        3PY         0.00000   0.26878
  13        3PZ         0.00000   0.00000   0.16810
     Gross orbital populations:
                           1
   1 1   H  1S          0.50317
   2        2S          0.16138
   3 2   H  1S          0.50749
   4        2S          0.15621
   5 3   O  1S          1.99695
   6        2S          0.91969
   7        2PX         1.11876
   8        2PY         0.92037
   9        2PZ         0.85217
  10        3S          1.00112
  11        3PX         0.77818
  12        3PY         0.61830
  13        3PZ         0.46621
          Condensed to atoms (all electrons):
              1          2          3
     1  H    0.473107  -0.033241   0.224685
     2  H   -0.033241   0.472467   0.224476
     3  O    0.224685   0.224476   8.222587
 Mulliken atomic charges:
              1
     1  H    0.335449
     2  H    0.336299
     3  O   -0.671748
 Sum of Mulliken atomic charges =   0.00000
 Mulliken charges with hydrogens summed into heavy atoms:
              1
     3  O    0.000000
 Sum of Mulliken charges with hydrogens summed into heavy atoms =   0.00000
 Electronic spatial extent (au):  <R**2>=            704.1232
 Charge=              0.0000 electrons
 Dipole moment (field-independent basis, Debye):
    X=             -0.2220    Y=             -2.2873    Z=              0.4824  Tot=              2.3481
 Quadrupole moment (field-independent basis, Debye-Ang):
   XX=             -8.5864   YY=            -13.4936   ZZ=             -3.5833
   XY=             -9.3010   XZ=              0.6268   YZ=             -1.6928
 Traceless Quadrupole moment (field-independent basis, Debye-Ang):
   XX=             -0.0320   YY=             -4.9392   ZZ=              4.9712
   XY=             -9.3010   XZ=              0.6268   YZ=             -1.6928
 Octapole moment (field-independent basis, Debye-Ang**2):
  XXX=            -89.4558  YYY=            -48.7024  ZZZ=            -15.0613  XYY=            -52.9119
  XXY=            -49.2178  XXZ=            -10.7752  XZZ=            -16.7287  YZZ=             -9.2826
  YYZ=            -14.5432  XYZ=             -8.4533
 Hexadecapole moment (field-independent basis, Debye-Ang**3):
 XXXX=           -670.2591 YYYY=           -148.5289 ZZZZ=            -44.5348 XXXY=           -285.6189
 XXXZ=           -124.5805 YYYX=           -189.3000 YYYZ=            -56.5415 ZZZX=            -63.6077
 ZZZY=            -30.4618 XXYY=           -228.6708 XXZZ=            -88.1317 YYZZ=            -32.6477
 XXYZ=            -54.1898 YYXZ=            -58.9711 ZZXY=            -40.1013
 N-N= 8.810644154329D+00 E-N=-1.983067227056D+02  KE= 7.594564022315D+01
 Orbital energies and kinetic energies (alpha):
                                 1                 2
   1         O               -18.784473         29.112862
   2         O                -0.901559          2.585501
   3         O                -0.456763          1.740831
   4         O                -0.289877          2.221395
   5         O                -0.221430          2.312232
   6         V                 0.019546          1.261209
   7         V                 0.104273          1.412520
   8         V                 0.746309          2.260211
   9         V                 0.776381          3.240084
  10         V                 0.836003          3.536957
  11         V                 0.902419          3.070411
  12         V                 1.005077          3.478956
  13         V                 1.362620          3.655673
 Total kinetic energy from orbitals= 7.594564022315D+01
 1\1\GINC-TOSHIBAC655-SATELLITE-C655\SP\RBLYP\6-31G\H2O1\TOSHIBAC655\23
 -Jun-2016\0\\# p blyp/6-31g fchk=all nosymm pop=full\\create esp of ad
 enine by running cubegen 0 potential Test.FChk rso.cube -2 h\\0,1\H,0,
 3.5264,1.3169,2.0702\H,0,4.0834,0.9641,0.6297\O,0,3.8636,1.7325,1.2219
 \\Version=EM64L-G09RevA.01\HF=-76.3664835\RMSD=6.960e-09\Dipole=-0.087
 3358,-0.8998925,0.1897935\Quadrupole=-0.0237822,-3.6721506,3.6959327,-
 6.9150358,0.465999,-1.2585909\PG=CS [SG(H2O1)]\\@


  THE LARGE PRINT GIVETH,
  AND THE SMALL PRINT TAKETH AWAY.

                     -- TOM WAITES
 Job cpu time:  0 days  0 hours  0 minutes  0.6 seconds.
 File lengths (MBytes):  RWF=      5 Int=      0 D2E=      0 Chk=      1 Scr=      1
 Normal termination of Gaussian 09 at Thu Jun 23 15:13:38 2016.

